<?xml version="1.0"?>
<VTKFile type="UnstructuredGrid">
  <UnstructuredGrid>
  <Piece NumberOfPoints="12411"  NumberOfCells="1379">
    <Points>
      <DataArray type="Float64" NumberOfComponents="3" format="ascii">
0 0 0
2.52269 -0.00764027 0
2.52889 4.28314 0
0 4.28571 0
1.26066 -0.00477025 0
2.52648 2.13824 0
1.26458 4.2848 0
0 2.14286 0
1.26351 2.14082 0
2.52269 -0.00764027 0
5.04745 -0.0132479 0
5.05702 4.27828 0
2.52889 4.28314 0
3.78505 -0.0103381 0
5.05247 2.13281 0
3.793 4.28095 0
2.52648 2.13824 0
3.78944 2.13561 0
5.04745 -0.0132479 0
7.57208 -0.0200155 0
7.58506 4.2716 0
5.05702 4.27828 0
6.30979 -0.0164328 0
7.57864 2.12602 0
6.32103 4.27518 0
5.05247 2.13281 0
6.31554 2.12964 0
7.57208 -0.0200155 0
10.0966 -0.0287322 0
10.1131 4.26289 0
7.58506 4.2716 0
8.83435 -0.0241097 0
10.1049 2.11732 0
8.84909 4.26751 0
7.57864 2.12602 0
8.84176 2.12192 0
10.0966 -0.0287322 0
12.621 -0.0395773 0
12.6413 4.25201 0
10.1131 4.26289 0
11.3588 -0.0338813 0
12.6312 2.10645 0
11.3772 4.25773 0
10.1049 2.11732 0
11.368 2.11216 0
12.621 -0.0395773 0
15.1455 -0.0526725 0
15.1695 4.23888 0
12.6413 4.25201 0
13.8832 -0.0458409 0
15.1575 2.09334 0
13.9054 4.24573 0
12.6312 2.10645 0
13.8944 2.10018 0
15.1455 -0.0526725 0
17.6699 -0.0680335 0
17.6978 4.22346 0
15.1695 4.23888 0
16.4077 -0.060069 0
17.6839 2.07796 0
16.4336 4.23146 0
15.1575 2.09334 0
16.4207 2.08594 0
17.6699 -0.0680335 0
20.1944 -0.0856747 0
20.2261 4.20577 0
17.6978 4.22346 0
18.9321 -0.0765692 0
20.2103 2.06029 0
18.9619 4.2149 0
17.6839 2.07796 0
18.9471 2.06941 0
20.1944 -0.0856747 0
22.7189 -0.105587 0
22.7544 4.18579 0
20.2261 4.20577 0
21.4566 -0.0953475 0
22.7367 2.04035 0
21.4903 4.19606 0
20.2103 2.06029 0
21.4735 2.0506 0
22.7189 -0.105587 0
25.2434 -0.127762 0
25.2828 4.16356 0
22.7544 4.18579 0
23.9811 -0.116392 0
25.2632 2.01814 0
24.0186 4.17496 0
22.7367 2.04035 0
23.9999 2.02953 0
25.2434 -0.127762 0
27.768 -0.152186 0
27.8112 4.13906 0
25.2828 4.16356 0
26.5057 -0.139693 0
27.7897 1.99368 0
26.547 4.15159 0
25.2632 2.01814 0
26.5264 2.00619 0
27.768 -0.152186 0
30.2927 -0.178849 0
30.3397 4.11233 0
27.8112 4.13906 0
29.0303 -0.165238 0
30.3162 1.96698 0
29.0755 4.12598 0
27.7897 1.99368 0
29.053 1.98061 0
30.2927 -0.178849 0
32.8174 -0.207736 0
32.8681 4.08337 0
30.3397 4.11233 0
31.555 -0.193015 0
32.8428 1.93806 0
31.6039 4.09813 0
30.3162 1.96698 0
31.5795 1.9528 0
32.8174 -0.207736 0
35.3421 -0.238836 0
35.3966 4.05219 0
32.8681 4.08337 0
34.0797 -0.22301 0
35.3694 1.90692 0
34.1324 4.06806 0
32.8428 1.93806 0
34.1061 1.92276 0
35.3421 -0.238836 0
37.8669 -0.272137 0
37.9252 4.01881 0
35.3966 4.05219 0
36.6045 -0.255212 0
37.8961 1.87357 0
36.6609 4.03577 0
35.3694 1.90692 0
36.6328 1.89052 0
37.8669 -0.272137 0
40.3917 -0.307626 0
40.4537 3.98324 0
37.9252 4.01881 0
39.1293 -0.289609 0
40.4228 1.83804 0
39.1894 4.0013 0
37.8961 1.87357 0
39.1594 1.85608 0
40.3917 -0.307626 0
42.9166 -0.345292 0
42.9822 3.94549 0
40.4537 3.98324 0
41.6542 -0.326188 0
42.9495 1.80033 0
41.718 3.96463 0
40.4228 1.83804 0
41.6861 1.81946 0
42.9166 -0.345292 0
45.4415 -0.385122 0
45.5108 3.90557 0
42.9822 3.94549 0
44.1791 -0.364937 0
45.4762 1.76046 0
44.2465 3.9258 0
42.9495 1.80033 0
44.2129 1.78066 0
45.4415 -0.385122 0
47.9665 -0.427105 0
48.0394 3.86349 0
45.5108 3.90557 0
46.704 -0.405845 0
48.003 1.71843 0
46.7751 3.8848 0
45.4762 1.76046 0
46.7396 1.73971 0
47.9665 -0.427105 0
50.4915 -0.471228 0
50.568 3.81928 0
48.0394 3.86349 0
49.229 -0.448899 0
50.5298 1.67425 0
49.3037 3.84165 0
48.003 1.71843 0
49.2664 1.69661 0
50.4915 -0.471228 0
53.0165 -0.517479 0
53.0966 3.77293 0
50.568 3.81928 0
51.754 -0.494088 0
53.0566 1.62795 0
51.8323 3.79637 0
50.5298 1.67425 0
51.7932 1.65137 0
53.0165 -0.517479 0
55.5415 -0.565847 0
55.6253 3.72446 0
53.0966 3.77293 0
54.279 -0.541399 0
55.5835 1.57953 0
54.361 3.74896 0
53.0566 1.62795 0
54.32 1.60401 0
55.5415 -0.565847 0
58.0666 -0.61632 0
58.1539 3.67389 0
55.6253 3.72446 0
56.8041 -0.590821 0
58.1103 1.52901 0
56.8896 3.69944 0
55.5835 1.57953 0
56.8469 1.55453 0
58.0666 -0.61632 0
60.5917 -0.668886 0
60.6826 3.62122 0
58.1539 3.67389 0
59.3292 -0.642342 0
60.6372 1.47639 0
59.4182 3.64781 0
58.1103 1.52901 0
59.3738 1.50296 0
60.5917 -0.668886 0
63.1168 -0.723532 0
63.2112 3.56646 0
60.6826 3.62122 0
61.8543 -0.695949 0
63.1641 1.42169 0
61.9469 3.5941 0
60.6372 1.47639 0
61.9006 1.4493 0
63.1168 -0.723532 0
65.642 -0.780247 0
65.7399 3.50964 0
63.2112 3.56646 0
64.3794 -0.751631 0
65.691 1.36492 0
64.4756 3.53831 0
63.1641 1.42169 0
64.4276 1.39356 0
65.642 -0.780247 0
68.1672 -0.839018 0
68.2686 3.45075 0
65.7399 3.50964 0
66.9046 -0.809376 0
68.2179 1.30609 0
67.0042 3.48045 0
65.691 1.36492 0
66.9545 1.33576 0
68.1672 -0.839018 0
70.6924 -0.899835 0
70.7972 3.38982 0
68.2686 3.45075 0
69.4298 -0.869172 0
70.7449 1.24521 0
69.5329 3.42054 0
68.2179 1.30609 0
69.4814 1.27591 0
70.6924 -0.899835 0
73.2176 -0.962684 0
73.3259 3.32686 0
70.7972 3.38982 0
71.955 -0.931006 0
73.2718 1.1823 0
72.0616 3.35859 0
70.7449 1.24521 0
72.0084 1.21401 0
73.2176 -0.962684 0
75.7429 -1.02755 0
75.8546 3.26187 0
73.3259 3.32686 0
74.4803 -0.994867 0
75.7988 1.11737 0
74.5903 3.29462 0
73.2718 1.1823 0
74.5353 1.15009 0
75.7429 -1.02755 0
78.2682 -1.09443 0
78.3833 3.19487 0
75.8546 3.26187 0
77.0055 -1.06074 0
78.3258 1.05043 0
77.1189 3.22862 0
75.7988 1.11737 0
77.0623 1.08415 0
78.2682 -1.09443 0
80.7935 -1.16331 0
80.9119 3.12587 0
78.3833 3.19487 0
79.5308 -1.12862 0
80.8528 0.981494 0
79.6476 3.16062 0
78.3258 1.05043 0
79.5893 1.01621 0
80.7935 -1.16331 0
83.3188 -1.23417 0
83.4406 3.05489 0
80.9119 3.12587 0
82.0561 -1.19849 0
83.3797 0.91057 0
82.1763 3.09063 0
80.8528 0.981494 0
82.1163 0.94628 0
83.3188 -1.23417 0
85.8441 -1.307 0
85.9693 2.98192 0
83.4406 3.05489 0
84.5814 -1.27034 0
85.9067 0.837671 0
84.7049 3.01865 0
83.3797 0.91057 0
84.6432 0.874366 0
85.8441 -1.307 0
88.3695 -1.3818 0
88.4979 2.907 0
85.9693 2.98192 0
87.1068 -1.34416 0
88.4337 0.76281 0
87.2336 2.94471 0
85.9067 0.837671 0
87.1702 0.800485 0
88.3695 -1.3818 0
90.8948 -1.45854 0
91.0266 2.83013 0
88.4979 2.907 0
89.6321 -1.41993 0
90.9607 0.686 0
89.7622 2.86881 0
88.4337 0.76281 0
89.6972 0.724648 0
90.8948 -1.45854 0
93.4202 -1.53722 0
93.5552 2.75131 0
91.0266 2.83013 0
92.1575 -1.49764 0
93.4878 0.607251 0
92.2909 2.79096 0
90.9607 0.686 0
92.2243 0.646867 0
93.4202 -1.53722 0
95.9456 -1.61783 0
96.0838 2.67057 0
93.5552 2.75131 0
94.6829 -1.57729 0
96.0148 0.526577 0
94.8195 2.71118 0
93.4878 0.607251 0
94.7513 0.567154 0
95.9456 -1.61783 0
98.4709 -1.70035 0
98.6125 2.58792 0
96.0838 2.67057 0
97.2082 -1.65885 0
98.5418 0.443989 0
97.3482 2.62948 0
96.0148 0.526577 0
97.2783 0.485521 0
98.4709 -1.70035 0
100.996 -1.78477 0
101.141 2.50336 0
98.6125 2.58792 0
99.7336 -1.74232 0
101.069 0.359498 0
99.8768 2.54587 0
98.5418 0.443989 0
99.8053 0.40198 0
100.996 -1.78477 0
103.522 -1.87108 0
103.67 2.41691 0
101.141 2.50336 0
102.259 -1.82769 0
103.596 0.273118 0
102.405 2.46037 0
101.069 0.359498 0
102.332 0.316544 0
103.522 -1.87108 0
106.047 -1.95926 0
106.198 2.32858 0
103.67 2.41691 0
104.784 -1.91493 0
106.123 0.18486 0
104.934 2.37298 0
103.596 0.273118 0
104.859 0.229223 0
106.047 -1.95926 0
108.573 -2.04931 0
108.727 2.23839 0
106.198 2.32858 0
107.31 -2.00405 0
108.65 0.0947359 0
107.463 2.28372 0
106.123 0.18486 0
107.386 0.14003 0
108.573 -2.04931 0
111.098 -2.14122 0
111.255 2.14634 0
108.727 2.23839 0
109.835 -2.09503 0
111.177 0.00275792 0
109.991 2.19259 0
108.65 0.0947359 0
109.913 0.0489779 0
111.098 -2.14122 0
113.623 -2.23496 0
113.784 2.05245 0
111.255 2.14634 0
112.361 -2.18786 0
113.704 -0.0910619 0
112.52 2.09962 0
111.177 0.00275792 0
112.44 -0.0439225 0
113.623 -2.23496 0
116.149 -2.33054 0
116.312 1.95672 0
113.784 2.05245 0
114.886 -2.28252 0
116.231 -0.186712 0
115.048 2.00481 0
113.704 -0.0910619 0
114.967 -0.138659 0
116.149 -2.33054 0
118.674 -2.42793 0
118.841 1.85918 0
116.312 1.95672 0
117.412 -2.37901 0
118.758 -0.284179 0
117.577 1.90818 0
116.231 -0.186712 0
117.494 -0.235219 0
118.674 -2.42793 0
121.2 -2.52713 0
121.369 1.75984 0
118.841 1.85918 0
119.937 -2.4773 0
121.285 -0.383453 0
120.105 1.80974 0
118.758 -0.284179 0
120.021 -0.333591 0
121.2 -2.52713 0
123.725 -2.62812 0
123.898 1.65869 0
121.369 1.75984 0
122.462 -2.5774 0
123.812 -0.48452 0
122.634 1.70949 0
121.285 -0.383453 0
122.548 -0.433763 0
123.725 -2.62812 0
126.251 -2.73089 0
126.426 1.55577 0
123.898 1.65869 0
124.988 -2.67928 0
126.339 -0.587369 0
125.162 1.60745 0
123.812 -0.48452 0
125.075 -0.535722 0
126.251 -2.73089 0
128.776 -2.83543 0
128.955 1.45108 0
126.426 1.55577 0
127.513 -2.78294 0
128.865 -0.691988 0
127.691 1.50364 0
126.339 -0.587369 0
127.602 -0.639458 0
128.776 -2.83543 0
131.301 -2.94172 0
131.483 1.34462 0
128.955 1.45108 0
130.039 -2.88836 0
131.392 -0.798365 0
130.219 1.39807 0
128.865 -0.691988 0
130.129 -0.744957 0
131.301 -2.94172 0
133.827 -3.04977 0
134.012 1.23642 0
131.483 1.34462 0
132.564 -2.99553 0
133.919 -0.906487 0
132.747 1.29074 0
131.392 -0.798365 0
132.656 -0.852208 0
133.827 -3.04977 0
136.352 -3.15954 0
136.54 1.12649 0
134.012 1.23642 0
135.09 -3.10444 0
136.446 -1.01634 0
135.276 1.18167 0
133.919 -0.906487 0
135.183 -0.961199 0
136.352 -3.15954 0
138.878 -3.27104 0
139.068 1.01483 0
136.54 1.12649 0
137.615 -3.21508 0
138.973 -1.12792 0
137.804 1.07088 0
136.446 -1.01634 0
137.71 -1.07192 0
138.878 -3.27104 0
141.403 -3.38425 0
141.597 0.901466 0
139.068 1.01483 0
140.14 -3.32743 0
141.5 -1.24121 0
140.332 0.958363 0
138.973 -1.12792 0
140.237 -1.18435 0
141.403 -3.38425 0
143.929 -3.49915 0
144.125 0.786402 0
141.597 0.901466 0
142.666 -3.44149 0
144.027 -1.35619 0
142.861 0.844146 0
141.5 -1.24121 0
142.763 -1.29849 0
143.929 -3.49915 0
146.454 -3.61574 0
146.653 0.669651 0
144.125 0.786402 0
145.191 -3.55723 0
146.554 -1.47287 0
145.389 0.728236 0
144.027 -1.35619 0
145.29 -1.41432 0
146.454 -3.61574 0
148.979 -3.734 0
149.181 0.551226 0
146.653 0.669651 0
[...]
    <PointData>
      <DataArray type="Float64" NumberOfComponents="3" Name="Displacement" format="ascii">
0 0 0
-0.0153856 -0.00764027 -0.00764027
-0.00917942 -0.00257058 -0.00257058
0 0 0
-0.00837618 -0.00477025 -0.00477025
-0.0115918 -0.00461363 -0.00461363
-0.00445338 -0.00091881 -0.00091881
0 0 0
-0.00552714 -0.00203537 -0.00203537
-0.0153856 -0.00764027 -0.00764027
-0.028696 -0.0132479 -0.0132479
-0.019122 -0.00743118 -0.00743118
-0.00917942 -0.00257058 -0.00257058
-0.0220588 -0.0103381 -0.0103381
-0.0236701 -0.0100446 -0.0100446
-0.0141033 -0.00476603 -0.00476603
-0.0115918 -0.00461363 -0.00461363
-0.0176651 -0.00724803 -0.00724803
-0.028696 -0.0132479 -0.0132479
-0.0421334 -0.0200155 -0.0200155
-0.0291554 -0.0141125 -0.0141125
-0.019122 -0.00743118 -0.00743118
-0.03539 -0.0164328 -0.0164328
-0.0355743 -0.0168395 -0.0168395
-0.0241444 -0.0105362 -0.0105362
-0.0236701 -0.0100446 -0.0100446
-0.0296371 -0.0132198 -0.0132198
-0.0421334 -0.0200155 -0.0200155
-0.0556878 -0.0287322 -0.0287322
-0.0391426 -0.0228208 -0.0228208
-0.0291554 -0.0141125 -0.0141125
-0.0488999 -0.0241097 -0.0241097
-0.0473821 -0.0255412 -0.0255412
-0.034157 -0.0182014 -0.0182014
-0.0355743 -0.0168395 -0.0168395
-0.0414858 -0.020934 -0.020934
-0.0556878 -0.0287322 -0.0287322
-0.0693214 -0.0395773 -0.0395773
-0.0490519 -0.0337011 -0.0337011
-0.0391426 -0.0228208 -0.0228208
-0.0624985 -0.0338813 -0.0338813
-0.0591569 -0.0364057 -0.0364057
-0.0441063 -0.0279833 -0.0279833
-0.0473821 -0.0255412 -0.0255412
-0.0532726 -0.0306952 -0.0306952
-0.0693214 -0.0395773 -0.0395773
-0.082968 -0.0526725 -0.0526725
-0.058905 -0.0468364 -0.0468364
-0.0490519 -0.0337011 -0.0337011
-0.0761452 -0.0458409 -0.0458409
-0.0709011 -0.0495139 -0.0495139
-0.0539847 -0.0399845 -0.0399845
-0.0591569 -0.0364057 -0.0364057
-0.0650329 -0.0426768 -0.0426768
-0.082968 -0.0526725 -0.0526725
-0.0966053 -0.0680335 -0.0680335
-0.0687079 -0.0622497 -0.0622497
-0.058905 -0.0468364 -0.0468364
-0.0897892 -0.060069 -0.060069
-0.0826154 -0.0648998 -0.0648998
-0.0638122 -0.0542578 -0.0542578
-0.0709011 -0.0495139 -0.0495139
-0.0767623 -0.0569213 -0.0569213
-0.0966053 -0.0680335 -0.0680335
-0.11021 -0.0856747 -0.0856747
-0.0784699 -0.0799467 -0.0799467
-0.0687079 -0.0622497 -0.0622497
-0.103413 -0.0765692 -0.0765692
-0.094294 -0.0825673 -0.0825673
-0.0735937 -0.070813 -0.070813
-0.0826154 -0.0648998 -0.0648998
-0.0884594 -0.0734486 -0.0734486
-0.11021 -0.0856747 -0.0856747
-0.123773 -0.105587 -0.105587
-0.0881947 -0.09992 -0.09992
-0.0784699 -0.0799467 -0.0799467
-0.116997 -0.0953475 -0.0953475
-0.105935 -0.10251 -0.10251
-0.0833368 -0.0896494 -0.0896494
-0.094294 -0.0825673 -0.0825673
-0.100119 -0.0922549 -0.0922549
-0.123773 -0.105587 -0.105587
-0.13729 -0.127762 -0.127762
-0.097886 -0.122159 -0.122159
-0.0881947 -0.09992 -0.09992
-0.130538 -0.116392 -0.116392
-0.117537 -0.124718 -0.124718
-0.0930444 -0.110757 -0.110757
-0.105935 -0.10251 -0.10251
-0.111741 -0.113332 -0.113332
-0.13729 -0.127762 -0.127762
-0.150758 -0.152186 -0.152186
-0.107546 -0.146652 -0.146652
-0.097886 -0.122159 -0.122159
-0.14403 -0.139693 -0.139693
-0.1291 -0.149177 -0.149177
-0.10272 -0.134124 -0.134124
-0.117537 -0.124718 -0.124718
-0.123323 -0.136667 -0.136667
-0.150758 -0.152186 -0.152186
-0.164178 -0.178849 -0.178849
-0.117177 -0.173385 -0.173385
-0.107546 -0.146652 -0.146652
-0.157474 -0.165238 -0.165238
-0.140624 -0.175876 -0.175876
-0.112365 -0.159739 -0.159739
-0.1291 -0.149177 -0.149177
-0.134867 -0.162248 -0.162248
-0.164178 -0.178849 -0.178849
-0.17755 -0.207736 -0.207736
-0.12678 -0.202346 -0.202346
-0.117177 -0.173385 -0.173385
-0.17087 -0.193015 -0.193015
-0.152112 -0.204802 -0.204802
-0.121982 -0.187588 -0.187588
-0.140624 -0.175876 -0.175876
-0.146373 -0.190062 -0.190062
-0.17755 -0.207736 -0.207736
-0.190877 -0.238836 -0.238836
-0.136359 -0.233524 -0.233524
-0.12678 -0.202346 -0.202346
-0.184219 -0.22301 -0.22301
-0.163564 -0.235942 -0.235942
-0.131573 -0.217659 -0.217659
-0.152112 -0.204802 -0.204802
-0.157843 -0.220096 -0.220096
-0.190877 -0.238836 -0.238836
-0.204159 -0.272137 -0.272137
-0.145914 -0.266904 -0.266904
-0.136359 -0.233524 -0.233524
-0.197523 -0.255212 -0.255212
-0.174983 -0.269284 -0.269284
-0.141139 -0.249939 -0.249939
-0.163564 -0.235942 -0.235942
-0.169278 -0.252339 -0.252339
-0.204159 -0.272137 -0.272137
-0.217399 -0.307626 -0.307626
-0.155447 -0.302477 -0.302477
-0.145914 -0.266904 -0.266904
-0.210784 -0.289609 -0.289609
-0.186369 -0.304816 -0.304816
-0.150683 -0.284417 -0.284417
-0.174983 -0.269284 -0.269284
-0.18068 -0.286777 -0.286777
-0.217399 -0.307626 -0.307626
-0.230599 -0.345292 -0.345292
-0.16496 -0.340228 -0.340228
-0.155447 -0.302477 -0.302477
-0.224004 -0.326188 -0.326188
-0.197725 -0.342526 -0.342526
-0.160206 -0.321081 -0.321081
-0.186369 -0.304816 -0.304816
-0.192051 -0.3234 -0.3234
-0.230599 -0.345292 -0.345292
-0.243759 -0.385122 -0.385122
-0.174455 -0.380147 -0.380147
-0.16496 -0.340228 -0.340228
-0.237184 -0.364937 -0.364937
-0.209053 -0.382402 -0.382402
-0.16971 -0.359917 -0.359917
-0.197725 -0.342526 -0.342526
-0.203393 -0.362194 -0.362194
-0.243759 -0.385122 -0.385122
-0.256883 -0.427105 -0.427105
-0.183934 -0.422221 -0.422221
-0.174455 -0.380147 -0.380147
-0.250325 -0.405845 -0.405845
-0.220354 -0.424432 -0.424432
-0.179196 -0.400915 -0.400915
-0.209053 -0.382402 -0.382402
-0.214707 -0.403148 -0.403148
-0.256883 -0.427105 -0.427105
-0.26997 -0.471228 -0.471228
-0.193397 -0.466438 -0.466438
-0.183934 -0.422221 -0.422221
-0.263431 -0.448899 -0.448899
-0.231629 -0.468603 -0.468603
-0.188667 -0.444062 -0.444062
-0.220354 -0.424432 -0.424432
-0.225994 -0.44625 -0.44625
-0.26997 -0.471228 -0.471228
-0.283024 -0.517479 -0.517479
-0.202847 -0.512786 -0.512786
-0.193397 -0.466438 -0.466438
-0.276501 -0.494088 -0.494088
-0.242881 -0.514905 -0.514905
-0.198123 -0.489347 -0.489347
-0.231629 -0.468603 -0.468603
-0.237258 -0.491488 -0.491488
-0.283024 -0.517479 -0.517479
-0.296045 -0.565847 -0.565847
-0.212285 -0.561254 -0.561254
-0.202847 -0.512786 -0.512786
-0.289539 -0.541399 -0.541399
-0.25411 -0.563324 -0.563324
-0.207567 -0.536756 -0.536756
-0.242881 -0.514905 -0.514905
-0.248498 -0.53885 -0.53885
-0.296045 -0.565847 -0.565847
-0.309036 -0.61632 -0.61632
-0.221713 -0.611829 -0.611829
-0.212285 -0.561254 -0.561254
-0.302544 -0.590821 -0.590821
-0.265319 -0.613849 -0.613849
-0.217 -0.586279 -0.586279
-0.25411 -0.563324 -0.563324
-0.259717 -0.588324 -0.588324
-0.309036 -0.61632 -0.61632
-0.321997 -0.668886 -0.668886
-0.231132 -0.664499 -0.664499
-0.221713 -0.611829 -0.611829
-0.31552 -0.642342 -0.642342
-0.276509 -0.666468 -0.666468
-0.226423 -0.637903 -0.637903
-0.265319 -0.613849 -0.613849
-0.270917 -0.639897 -0.639897
-0.321997 -0.668886 -0.668886
-0.33493 -0.723532 -0.723532
-0.240544 -0.719252 -0.719252
-0.231132 -0.664499 -0.664499
-0.328467 -0.695949 -0.695949
-0.287682 -0.721169 -0.721169
-0.235839 -0.691616 -0.691616
-0.276509 -0.666468 -0.666468
-0.282098 -0.693559 -0.693559
-0.33493 -0.723532 -0.723532
-0.347837 -0.780247 -0.780247
-0.24995 -0.776076 -0.776076
-0.240544 -0.719252 -0.719252
-0.341387 -0.751631 -0.751631
-0.298838 -0.77794 -0.77794
-0.245247 -0.747406 -0.747406
-0.287682 -0.721169 -0.721169
-0.293262 -0.749297 -0.749297
-0.347837 -0.780247 -0.780247
-0.360719 -0.839018 -0.839018
-0.259351 -0.83496 -0.83496
-0.24995 -0.776076 -0.776076
-0.354281 -0.809376 -0.809376
-0.309979 -0.836769 -0.836769
-0.254651 -0.805261 -0.805261
-0.298838 -0.77794 -0.77794
-0.30441 -0.807098 -0.807098
-0.360719 -0.839018 -0.839018
-0.373577 -0.899835 -0.899835
-0.26875 -0.89589 -0.89589
-0.259351 -0.83496 -0.83496
-0.367151 -0.869172 -0.869172
-0.321108 -0.897644 -0.897644
-0.264051 -0.86517 -0.86517
-0.309979 -0.836769 -0.836769
-0.315545 -0.866951 -0.866951
-0.373577 -0.899835 -0.899835
-0.386413 -0.962684 -0.962684
-0.278146 -0.958856 -0.958856
-0.26875 -0.89589 -0.89589
-0.379998 -0.931006 -0.931006
-0.332224 -0.960553 -0.960553
-0.273448 -0.92712 -0.92712
-0.321108 -0.897644 -0.897644
-0.326667 -0.928845 -0.928845
-0.386413 -0.962684 -0.962684
-0.399228 -1.02755 -1.02755
-0.287543 -1.02384 -1.02384
-0.278146 -0.958856 -0.958856
-0.392823 -0.994867 -0.994867
-0.343329 -1.02548 -1.02548
-0.282845 -0.991098 -0.991098
-0.332224 -0.960553 -0.960553
-0.337778 -0.992766 -0.992766
-0.399228 -1.02755 -1.02755
-0.412024 -1.09443 -1.09443
-0.29694 -1.09084 -1.09084
-0.287543 -1.02384 -1.02384
-0.405628 -1.06074 -1.06074
-0.354426 -1.09242 -1.09242
-0.292241 -1.05709 -1.05709
-0.343329 -1.02548 -1.02548
-0.348879 -1.0587 -1.0587
-0.412024 -1.09443 -1.09443
-0.424801 -1.16331 -1.16331
-0.30634 -1.15984 -1.15984
-0.29694 -1.09084 -1.09084
-0.418414 -1.12862 -1.12862
-0.365514 -1.16136 -1.16136
-0.30164 -1.12509 -1.12509
-0.354426 -1.09242 -1.09242
-0.359971 -1.12664 -1.12664
-0.424801 -1.16331 -1.16331
-0.43756 -1.23417 -1.23417
-0.315743 -1.23083 -1.23083
-0.30634 -1.15984 -1.15984
-0.431183 -1.19849 -1.19849
-0.376595 -1.23229 -1.23229
-0.311041 -1.19509 -1.19509
-0.365514 -1.16136 -1.16136
-0.371055 -1.19658 -1.19658
-0.43756 -1.23417 -1.23417
-0.450305 -1.307 -1.307
-0.325151 -1.30379 -1.30379
-0.315743 -1.23083 -1.23083
-0.443934 -1.27034 -1.27034
-0.387671 -1.30519 -1.30519
-0.320446 -1.26706 -1.26706
-0.376595 -1.23229 -1.23229
-0.382134 -1.26849 -1.26849
-0.450305 -1.307 -1.307
-0.463034 -1.3818 -1.3818
-0.334564 -1.37871 -1.37871
-0.325151 -1.30379 -1.30379
-0.456671 -1.34416 -1.34416
-0.398742 -1.38005 -1.38005
-0.329857 -1.34101 -1.34101
-0.387671 -1.30519 -1.30519
-0.393207 -1.34237 -1.34237
-0.463034 -1.3818 -1.3818
-0.47575 -1.45854 -1.45854
-0.343985 -1.45559 -1.45559
-0.334564 -1.37871 -1.37871
-0.469393 -1.41993 -1.41993
-0.409811 -1.45686 -1.45686
-0.339274 -1.41691 -1.41691
-0.398742 -1.38005 -1.38005
-0.404277 -1.41821 -1.41821
-0.47575 -1.45854 -1.45854
-0.488453 -1.53722 -1.53722
-0.353414 -1.5344 -1.5344
-0.343985 -1.45559 -1.45559
-0.482103 -1.49764 -1.49764
-0.420877 -1.53561 -1.53561
-0.348698 -1.49475 -1.49475
-0.409811 -1.45686 -1.45686
-0.415344 -1.49599 -1.49599
-0.488453 -1.53722 -1.53722
-0.501145 -1.61783 -1.61783
-0.362852 -1.61514 -1.61514
-0.353414 -1.5344 -1.5344
-0.4948 -1.57729 -1.57729
-0.431942 -1.61628 -1.61628
-0.358132 -1.57453 -1.57453
-0.420877 -1.53561 -1.53561
-0.426409 -1.5757 -1.5757
-0.501145 -1.61783 -1.61783
-0.513827 -1.70035 -1.70035
-0.372301 -1.6978 -1.6978
-0.362852 -1.61514 -1.61514
-0.507487 -1.65885 -1.65885
-0.443007 -1.69887 -1.69887
-0.367575 -1.65623 -1.65623
-0.431942 -1.61628 -1.61628
-0.437474 -1.65734 -1.65734
-0.513827 -1.70035 -1.70035
-0.5265 -1.78477 -1.78477
-0.38176 -1.78236 -1.78236
-0.372301 -1.6978 -1.6978
-0.520164 -1.74232 -1.74232
-0.454073 -1.78336 -1.78336
-0.377029 -1.73984 -1.73984
-0.443007 -1.69887 -1.69887
-0.448539 -1.74088 -1.74088
-0.5265 -1.78477 -1.78477
-0.539164 -1.87108 -1.87108
-0.391233 -1.8688 -1.8688
-0.38176 -1.78236 -1.78236
-0.532833 -1.82769 -1.82769
-0.465141 -1.86974 -1.86974
-0.386495 -1.82534 -1.82534
-0.454073 -1.78336 -1.78336
-0.459607 -1.82631 -1.82631
-0.539164 -1.87108 -1.87108
-0.551822 -1.95926 -1.95926
-0.400719 -1.95713 -1.95713
-0.391233 -1.8688 -1.8688
-0.545494 -1.91493 -1.91493
-0.476213 -1.958 -1.958
-0.395974 -1.91273 -1.91273
-0.465141 -1.86974 -1.86974
-0.470676 -1.91363 -1.91363
-0.551822 -1.95926 -1.95926
-0.564473 -2.04931 -2.04931
-0.410219 -2.04733 -2.04733
-0.400719 -1.95713 -1.95713
-0.558148 -2.00405 -2.00405
-0.487288 -2.04812 -2.04812
-0.405467 -2.002 -2.002
-0.476213 -1.958 -1.958
-0.48175 -2.00283 -2.00283
-0.564473 -2.04931 -2.04931
-0.577119 -2.14122 -2.14122
-0.419734 -2.13938 -2.13938
-0.410219 -2.04733 -2.04733
-0.570796 -2.09503 -2.09503
-0.498369 -2.1401 -2.1401
-0.414974 -2.09312 -2.09312
-0.487288 -2.04812 -2.04812
-0.492828 -2.09388 -2.09388
-0.577119 -2.14122 -2.14122
-0.58976 -2.23496 -2.23496
-0.429266 -2.23327 -2.23327
-0.419734 -2.13938 -2.13938
-0.58344 -2.18786 -2.18786
-0.509455 -2.23392 -2.23392
-0.424498 -2.18609 -2.18609
-0.498369 -2.1401 -2.1401
-0.503911 -2.18678 -2.18678
-0.58976 -2.23496 -2.23496
-0.602398 -2.33054 -2.33054
-0.438815 -2.32899 -2.32899
-0.429266 -2.23327 -2.23327
-0.59608 -2.28252 -2.28252
-0.520549 -2.32957 -2.32957
-0.434038 -2.2809 -2.2809
-0.509455 -2.23392 -2.23392
-0.515001 -2.28152 -2.28152
-0.602398 -2.33054 -2.33054
-0.615034 -2.42793 -2.42793
-0.448382 -2.42653 -2.42653
-0.438815 -2.32899 -2.32899
-0.608717 -2.37901 -2.37901
-0.53165 -2.42704 -2.42704
-0.443596 -2.37753 -2.37753
-0.520549 -2.32957 -2.32957
-0.526098 -2.37808 -2.37808
-0.615034 -2.42793 -2.42793
-0.627668 -2.52713 -2.52713
-0.457968 -2.52588 -2.52588
-0.448382 -2.42653 -2.42653
-0.621351 -2.4773 -2.4773
-0.54276 -2.52631 -2.52631
-0.453172 -2.47598 -2.47598
-0.53165 -2.42704 -2.42704
-0.537204 -2.47645 -2.47645
-0.627668 -2.52713 -2.52713
-0.640301 -2.62812 -2.62812
-0.467573 -2.62702 -2.62702
-0.457968 -2.52588 -2.52588
-0.633985 -2.5774 -2.5774
-0.553879 -2.62738 -2.62738
-0.462768 -2.57622 -2.57622
-0.54276 -2.52631 -2.52631
-0.548318 -2.57662 -2.57662
-0.640301 -2.62812 -2.62812
-0.652934 -2.73089 -2.73089
-0.477199 -2.72994 -2.72994
-0.467573 -2.62702 -2.62702
-0.646617 -2.67928 -2.67928
-0.565008 -2.73023 -2.73023
-0.472383 -2.67826 -2.67826
-0.553879 -2.62738 -2.62738
-0.559442 -2.67858 -2.67858
-0.652934 -2.73089 -2.73089
-0.665567 -2.83543 -2.83543
-0.486846 -2.83464 -2.83464
-0.477199 -2.72994 -2.72994
-0.659251 -2.78294 -2.78294
-0.576148 -2.83484 -2.83484
-0.48202 -2.78207 -2.78207
-0.565008 -2.73023 -2.73023
-0.570577 -2.78232 -2.78232
-0.665567 -2.83543 -2.83543
-0.678202 -2.94172 -2.94172
-0.496515 -2.94109 -2.94109
-0.486846 -2.83464 -2.83464
-0.671885 -2.88836 -2.88836
-0.5873 -2.94122 -2.94122
-0.491678 -2.88765 -2.88765
-0.576148 -2.83484 -2.83484
-0.581723 -2.88781 -2.88781
-0.678202 -2.94172 -2.94172
-0.690839 -3.04977 -3.04977
-0.506207 -3.04929 -3.04929
-0.496515 -2.94109 -2.94109
-0.684521 -2.99553 -2.99553
-0.598465 -3.04934 -3.04934
-0.501358 -2.99497 -2.99497
-0.5873 -2.94122 -2.94122
-0.592881 -2.99507 -2.99507
-0.690839 -3.04977 -3.04977
-0.703479 -3.15954 -3.15954
-0.515922 -3.15923 -3.15923
-0.506207 -3.04929 -3.04929
-0.697159 -3.10444 -3.10444
-0.609642 -3.1592 -3.1592
-0.511061 -3.10404 -3.10404
-0.598465 -3.04934 -3.04934
-0.604052 -3.10406 -3.10406
-0.703479 -3.15954 -3.15954
-0.716122 -3.27104 -3.27104
-0.525661 -3.27088 -3.27088
-0.515922 -3.15923 -3.15923
-0.7098 -3.21508 -3.21508
-0.620833 -3.27078 -3.27078
-0.520788 -3.21484 -3.21484
-0.609642 -3.1592 -3.1592
-0.615236 -3.21477 -3.21477
-0.716122 -3.27104 -3.27104
-0.72877 -3.38425 -3.38425
-0.535424 -3.38425 -3.38425
-0.525661 -3.27088 -3.27088
-0.722445 -3.32743 -3.32743
-0.632038 -3.38407 -3.38407
-0.530539 -3.32735 -3.32735
-0.620833 -3.27078 -3.27078
-0.626434 -3.32721 -3.32721
-0.72877 -3.38425 -3.38425
-0.741421 -3.49915 -3.49915
-0.545213 -3.49931 -3.49931
-0.535424 -3.38425 -3.38425
-0.735095 -3.44149 -3.44149
-0.643259 -3.49905 -3.49905
-0.540316 -3.44157 -3.44157
-0.632038 -3.38407 -3.38407
-0.637647 -3.44135 -3.44135
-0.741421 -3.49915 -3.49915
-0.754079 -3.61574 -3.61574
-0.555028 -3.61606 -3.61606
-0.545213 -3.49931 -3.49931
-0.747749 -3.55723 -3.55723
-0.654495 -3.61572 -3.61572
-0.550117 -3.55748 -3.55748
-0.643259 -3.49905 -3.49905
-0.648875 -3.55718 -3.55718
-0.754079 -3.61574 -3.61574
-0.766742 -3.734 -3.734
-0.564869 -3.73449 -3.73449
-0.555028 -3.61606 -3.61606
-0.76041 -3.67466 -3.67466
-0.665747 -3.73407 -3.73407
-0.559945 -3.67507 -3.67507
-0.654495 -3.61572 -3.61572
-0.660119 -3.67469 -3.67469
-0.766742 -3.734 -3.734
-0.779411 -3.85392 -3.85392
-0.574737 -3.85458 -3.85458
-0.564869 -3.73449 -3.73449
-0.773076 -3.79376 -3.79376
-0.677015 -3.85407 -3.85407
-0.5698 -3.79432 -3.79432
-0.665747 -3.73407 -3.73407
-0.671379 -3.79386 -3.79386
-0.779411 -3.85392 -3.85392
-0.792088 -3.9755 -3.9755
-0.584633 -3.97631 -3.97631
-0.574737 -3.85458 -3.85458
-0.785749 -3.9145 -3.9145
-0.688301 -3.97573 -3.97573
-0.579681 -3.91524 -3.91524
-0.677015 -3.85407 -3.85407
-0.682656 -3.9147 -3.9147
-0.792088 -3.9755 -3.9755
-0.804771 -4.09871 -4.09871
-0.594556 -4.09969 -4.09969
-0.584633 -3.97631 -3.97631
-0.798429 -4.0369 -4.0369
-0.699605 -4.09902 -4.09902
-0.589591 -4.0378 -4.0378
-0.688301 -3.97573 -3.97573
-0.693951 -4.03717 -4.03717
-0.804771 -4.09871 -4.09871
-0.817463 -4.22354 -4.22354
-0.604508 -4.22469 -4.22469
-0.594556 -4.09969 -4.09969
-0.811116 -4.16092 -4.16092
-0.710927 -4.22394 -4.22394
-0.599529 -4.16199 -4.16199
-0.699605 -4.09902 -4.09902
-0.705264 -4.16128 -4.16128
-0.817463 -4.22354 -4.22354
-0.830163 -4.34999 -4.34999
-0.614489 -4.3513 -4.3513
-0.604508 -4.22469 -4.22469
-0.823812 -4.28656 -4.28656
-0.722267 -4.35048 -4.35048
-0.609495 -4.2878 -4.2878
-0.710927 -4.22394 -4.22394
-0.716595 -4.28701 -4.28701
-0.830163 -4.34999 -4.34999
-0.842872 -4.47804 -4.47804
-0.624499 -4.47952 -4.47952
-0.614489 -4.3513 -4.3513
-0.836516 -4.41381 -4.41381
-0.733626 -4.47861 -4.47861
-0.61949 -4.41521 -4.41521
-0.722267 -4.35048 -4.35048
-0.727944 -4.41434 -4.41434
-0.842872 -4.47804 -4.47804
-0.85559 -4.60768 -4.60768
-0.634539 -4.60933 -4.60933
-0.624499 -4.47952 -4.47952
-0.84923 -4.54266 -4.54266
-0.745005 -4.60834 -4.60834
-0.629515 -4.54423 -4.54423
-0.733626 -4.47861 -4.47861
-0.739313 -4.54328 -4.54328
-0.85559 -4.60768 -4.60768
-0.868317 -4.73889 -4.73889
-0.644609 -4.74071 -4.74071
-0.634539 -4.60933 -4.60933
-0.861952 -4.67309 -4.67309
-0.756404 -4.73964 -4.73964
-0.63957 -4.67482 -4.67482
-0.745005 -4.60834 -4.60834
-0.750702 -4.67379 -4.67379
-0.868317 -4.73889 -4.73889
-0.881054 -4.87167 -4.87167
-0.654709 -4.87366 -4.87366
-0.644609 -4.74071 -4.74071
-0.874685 -4.80509 -4.80509
-0.767823 -4.8725 -4.8725
-0.649655 -4.80699 -4.80699
-0.756404 -4.73964 -4.73964
-0.762111 -4.80588 -4.80588
-0.881054 -4.87167 -4.87167
-0.893802 -5.00601 -5.00601
-0.66484 -5.00817 -5.00817
-0.654709 -4.87366 -4.87366
-0.887427 -4.93865 -4.93865
-0.779262 -5.00693 -5.00693
-0.659771 -4.94072 -4.94072
-0.767823 -4.8725 -4.8725
-0.77354 -4.93952 -4.93952
-0.893802 -5.00601 -5.00601
-0.90656 -5.14189 -5.14189
-0.675002 -5.14422 -5.14422
-0.66484 -5.00817 -5.00817
-0.90018 -5.07376 -5.07376
-0.790722 -5.14289 -5.14289
-0.669917 -5.076 -5.076
-0.779262 -5.00693 -5.00693
-0.784989 -5.07472 -5.07472
-0.90656 -5.14189 -5.14189
-0.919329 -5.27929 -5.27929
-0.685195 -5.28179 -5.28179
-0.675002 -5.14422 -5.14422
-0.912943 -5.2104 -5.2104
-0.802203 -5.28038 -5.28038
-0.680095 -5.21281 -5.21281
-0.790722 -5.14289 -5.14289
-0.79646 -5.21144 -5.21144
-0.919329 -5.27929 -5.27929
-0.932109 -5.41821 -5.41821
-0.695421 -5.42089 -5.42089
-0.685195 -5.28179 -5.28179
-0.925717 -5.34856 -5.34856
-0.813706 -5.41939 -5.41939
-0.690304 -5.35115 -5.35115
-0.802203 -5.28038 -5.28038
-0.807952 -5.3497 -5.3497
-0.932109 -5.41821 -5.41821
-0.9449 -5.55864 -5.55864
-0.705677 -5.56149 -5.56149
-0.695421 -5.42089 -5.42089
-0.938503 -5.48824 -5.48824
-0.82523 -5.5599 -5.5599
-0.700545 -5.491 -5.491
-0.813706 -5.41939 -5.41939
-0.819465 -5.48946 -5.48946
-0.9449 -5.55864 -5.55864
-0.957703 -5.70056 -5.70056
-0.715967 -5.70358 -5.70358
-0.705677 -5.56149 -5.56149
-0.9513 -5.62941 -5.62941
-0.836776 -5.70191 -5.70191
-0.710818 -5.63235 -5.63235
-0.82523 -5.5599 -5.5599
-0.831 -5.63072 -5.63072
-0.957703 -5.70056 -5.70056
-0.970518 -5.84396 -5.84396
-0.726288 -5.84715 -5.84715
-0.715967 -5.70358 -5.70358
-0.964109 -5.77208 -5.77208
-0.848344 -5.8454 -5.8454
-0.721123 -5.77518 -5.77518
-0.836776 -5.70191 -5.70191
-0.842557 -5.77347 -5.77347
-0.970518 -5.84396 -5.84396
-0.983344 -5.98883 -5.98883
-0.736642 -5.9922 -5.9922
-0.726288 -5.84715 -5.84715
-0.97693 -5.91622 -5.91622
-0.859934 -5.99036 -5.99036
-0.731461 -5.91949 -5.91949
-0.848344 -5.8454 -5.8454
-0.854136 -5.9177 -5.9177
-0.983344 -5.98883 -5.98883
-0.996183 -6.13516 -6.13516
-0.747028 -6.1387 -6.1387
-0.736642 -5.9922 -5.9922
-0.989762 -6.06182 -6.06182
-0.871546 -6.13678 -6.13678
-0.741831 -6.06527 -6.06527
-0.859934 -5.99036 -5.99036
-0.865737 -6.06339 -6.06339
-0.996183 -6.13516 -6.13516