<?xml version="1.0"?>
<VTKFile type="UnstructuredGrid">
  <UnstructuredGrid>
  <Piece NumberOfPoints="12411"  NumberOfCells="1379">
    <Points>
      <DataArray type="Float64" NumberOfComponents="3" format="ascii">
0 0 0
2.52499 -0.00650149 0
2.53027 4.28353 0
0 4.28571 0
1.26191 -0.00405804 0
2.52822 2.13893 0
1.26525 4.28493 0
0 2.14286 0
1.26434 2.14113 0
2.52499 -0.00650149 0
5.05174 -0.0112769 0
5.05989 4.27939 0
2.53027 4.28353 0
3.78835 -0.00879893 0
5.05602 2.13431 0
3.79512 4.28166 0
2.52822 2.13893 0
3.79209 2.13669 0
5.05174 -0.0112769 0
7.57839 -0.0170396 0
7.58943 4.2737 0
5.05989 4.27939 0
6.31509 -0.0139889 0
7.58397 2.12852 0
6.32465 4.27674 0
5.05602 2.13431 0
6.31998 2.1316 0
7.57839 -0.0170396 0
10.1049 -0.0244609 0
10.119 4.26629 0
7.58943 4.2737 0
8.84168 -0.0205255 0
10.112 2.12111 0
8.85421 4.27022 0
7.58397 2.12852 0
8.84798 2.12503 0
10.1049 -0.0244609 0
12.6314 -0.0336933 0
12.6487 4.25703 0
10.119 4.26629 0
11.3682 -0.0288444 0
12.6401 2.11187 0
11.3838 4.26189 0
10.112 2.12111 0
11.376 2.11673 0
12.6314 -0.0336933 0
15.1579 -0.0448405 0
15.1784 4.24585 0
12.6487 4.25703 0
13.8947 -0.0390252 0
15.1682 2.10071 0
13.9135 4.25168 0
12.6401 2.11187 0
13.9041 2.10653 0
15.1579 -0.0448405 0
17.6844 -0.0579162 0
17.7081 4.23273 0
15.1784 4.24585 0
16.4211 -0.0511367 0
17.6963 2.08761 0
16.4432 4.23953 0
15.1682 2.10071 0
16.4322 2.0944 0
17.6844 -0.0579162 0
20.2109 -0.0729325 0
20.2379 4.21767 0
17.7081 4.23273 0
18.9476 -0.0651819 0
20.2244 2.07258 0
18.973 4.22544 0
17.6963 2.08761 0
18.9603 2.08034 0
20.2109 -0.0729325 0
22.7374 -0.0898817 0
22.7677 4.20067 0
20.2379 4.21767 0
21.4742 -0.081166 0
22.7526 2.0556 0
21.5028 4.20941 0
20.2244 2.07258 0
21.4885 2.06433 0
22.7374 -0.0898817 0
25.264 -0.108757 0
25.2975 4.18175 0
22.7677 4.20067 0
24.0007 -0.0990792 0
25.2808 2.0367 0
24.0326 4.19145 0
22.7526 2.0556 0
24.0167 2.04639 0
25.264 -0.108757 0
27.7907 -0.129547 0
27.8274 4.1609 0
25.2975 4.18175 0
26.5273 -0.118913 0
27.8091 2.01588 0
26.5625 4.17157 0
25.2808 2.0367 0
26.545 2.02653 0
27.7907 -0.129547 0
30.3173 -0.152242 0
30.3573 4.13815 0
27.8274 4.1609 0
29.054 -0.140657 0
30.3374 1.99316 0
29.0924 4.14977 0
27.8091 2.01588 0
29.0732 2.00476 0
30.3173 -0.152242 0
32.8441 -0.176831 0
32.8872 4.11351 0
30.3573 4.13815 0
31.5807 -0.1643 0
32.8657 1.96854 0
31.6223 4.12607 0
30.3374 1.99316 0
31.6015 1.98109 0
32.8441 -0.176831 0
35.3708 -0.203303 0
35.4172 4.08698 0
32.8872 4.11351 0
34.1074 -0.189832 0
35.3941 1.94204 0
34.1522 4.10048 0
32.8657 1.96854 0
34.1299 1.95553 0
35.3708 -0.203303 0
37.8976 -0.231648 0
37.9472 4.05857 0
35.4172 4.08698 0
36.6342 -0.217242 0
37.9225 1.91366 0
36.6822 4.07301 0
35.3941 1.94204 0
36.6583 1.92808 0
37.8976 -0.231648 0
40.4245 -0.261857 0
40.4772 4.0283 0
37.9472 4.05857 0
39.1611 -0.24652 0
40.4509 1.88342 0
39.2122 4.04367 0
37.9225 1.91366 0
39.1867 1.89877 0
40.4245 -0.261857 0
42.9514 -0.293917 0
43.0072 3.99617 0
40.4772 4.0283 0
41.6879 -0.277656 0
42.9793 1.85132 0
41.7422 4.01246 0
40.4509 1.88342 0
41.7151 1.8676 0
42.9514 -0.293917 0
45.4783 -0.32782 0
45.5372 3.9622 0
43.0072 3.99617 0
44.2148 -0.310639 0
45.5078 1.81739 0
44.2722 3.97941 0
42.9793 1.85132 0
44.2436 1.83459 0
45.4783 -0.32782 0
48.0052 -0.363556 0
48.0673 3.92639 0
45.5372 3.9622 0
46.7418 -0.34546 0
48.0363 1.78162 0
46.8023 3.94452 0
45.5078 1.81739 0
46.7721 1.79973 0
48.0052 -0.363556 0
50.5322 -0.401113 0
50.5974 3.88876 0
48.0673 3.92639 0
49.2687 -0.382107 0
50.5648 1.74402 0
49.3323 3.90781 0
48.0363 1.78162 0
49.3006 1.76305 0
50.5322 -0.401113 0
53.0593 -0.440482 0
53.1274 3.84932 0
50.5974 3.88876 0
51.7957 -0.420572 0
53.0934 1.70461 0
51.8624 3.86927 0
50.5648 1.74402 0
51.8291 1.72454 0
53.0593 -0.440482 0
55.5863 -0.481652 0
55.6576 3.80807 0
53.1274 3.84932 0
54.3228 -0.460843 0
55.622 1.6634 0
54.3925 3.82892 0
53.0934 1.70461 0
54.3577 1.68423 0
55.5863 -0.481652 0
58.1134 -0.524615 0
58.1877 3.76503 0
55.6576 3.80807 0
56.8499 -0.50291 0
58.1506 1.6204 0
56.9226 3.78678 0
55.622 1.6634 0
56.8863 1.64213 0
58.1134 -0.524615 0
60.6405 -0.569358 0
60.7178 3.72021 0
58.1877 3.76503 0
59.377 -0.546764 0
60.6792 1.57562 0
59.4527 3.74285 0
58.1506 1.6204 0
59.4149 1.59823 0
60.6405 -0.569358 0
63.1677 -0.615872 0
63.2479 3.67362 0
60.7178 3.72021 0
61.9041 -0.592394 0
63.2079 1.52906 0
61.9829 3.69714 0
60.6792 1.57562 0
61.9435 1.55256 0
63.1677 -0.615872 0
65.6949 -0.664147 0
65.7781 3.62526 0
63.2479 3.67362 0
64.4313 -0.63979 0
65.7365 1.48074 0
64.513 3.64966 0
63.2079 1.52906 0
64.4722 1.50512 0
65.6949 -0.664147 0
68.2221 -0.714173 0
68.3083 3.57515 0
65.7781 3.62526 0
66.9585 -0.688942 0
68.2652 1.43067 0
67.0432 3.60042 0
65.7365 1.48074 0
67.0009 1.45593 0
68.2221 -0.714173 0
70.7493 -0.765939 0
70.8384 3.52329 0
68.3083 3.57515 0
69.4857 -0.739839 0
70.7939 1.37886 0
69.5733 3.54944 0
68.2652 1.43067 0
69.5296 1.40499 0
70.7493 -0.765939 0
73.2765 -0.819436 0
73.3686 3.46971 0
70.8384 3.52329 0
72.0129 -0.792472 0
73.3226 1.32532 0
72.1035 3.49672 0
70.7939 1.37886 0
72.0583 1.35231 0
73.2765 -0.819436 0
75.8038 -0.874653 0
75.8988 3.4144 0
73.3686 3.46971 0
74.5402 -0.84683 0
75.8514 1.27006 0
74.6337 3.44227 0
73.3226 1.32532 0
74.587 1.2979 0
75.8038 -0.874653 0
78.3311 -0.931579 0
78.429 3.35739 0
75.8988 3.4144 0
77.0675 -0.902903 0
78.3801 1.21309 0
77.1639 3.38611 0
75.8514 1.27006 0
77.1157 1.24179 0
78.3311 -0.931579 0
80.8584 -0.990206 0
80.9592 3.29867 0
78.429 3.35739 0
79.5948 -0.960681 0
80.9089 1.15441 0
79.6941 3.32824 0
78.3801 1.21309 0
79.6445 1.18396 0
80.8584 -0.990206 0
83.3858 -1.05052 0
83.4894 3.23826 0
80.9592 3.29867 0
82.1221 -1.02015 0
83.4376 1.09405 0
82.2243 3.26867 0
80.9089 1.15441 0
82.1733 1.12444 0
83.3858 -1.05052 0
85.9132 -1.11252 0
86.0196 3.17616 0
83.4894 3.23826 0
84.6495 -1.08131 0
85.9664 1.032 0
84.7545 3.20742 0
83.4376 1.09405 0
84.702 1.06323 0
85.9132 -1.11252 0
88.4405 -1.17618 0
88.5498 3.1124 0
86.0196 3.17616 0
87.1769 -1.14414 0
88.4952 0.968289 0
87.2847 3.14449 0
85.9664 1.032 0
87.2308 1.00035 0
88.4405 -1.17618 0
90.968 -1.2415 0
91.08 3.04698 0
88.5498 3.1124 0
89.7042 -1.20864 0
91.024 0.902915 0
89.8149 3.0799 0
88.4952 0.968289 0
89.7596 0.935809 0
90.968 -1.2415 0
93.4954 -1.30848 0
93.6102 2.97991 0
91.08 3.04698 0
92.2317 -1.27479 0
93.5528 0.835892 0
92.3451 3.01365 0
91.024 0.902915 0
92.2884 0.869609 0
93.4954 -1.30848 0
96.0228 -1.37709 0
96.1404 2.9112 0
93.6102 2.97991 0
94.7591 -1.34258 0
96.0817 0.767229 0
94.8753 2.94576 0
93.5528 0.835892 0
94.8173 0.801765 0
96.0228 -1.37709 0
98.5503 -1.44733 0
98.6706 2.84086 0
96.1404 2.9112 0
97.2865 -1.412 0
98.6105 0.696938 0
97.4055 2.87623 0
96.0817 0.767229 0
97.3461 0.732287 0
98.5503 -1.44733 0
101.078 -1.51918 0
101.201 2.76889 0
98.6706 2.84086 0
99.814 -1.48305 0
101.139 0.625028 0
99.9357 2.80508 0
98.6105 0.696938 0
99.8749 0.661184 0
101.078 -1.51918 0
103.605 -1.59265 0
103.731 2.69532 0
101.201 2.76889 0
102.341 -1.55572 0
103.668 0.551509 0
102.466 2.73231 0
101.139 0.625028 0
102.404 0.588469 0
103.605 -1.59265 0
106.133 -1.66771 0
106.261 2.62015 0
103.731 2.69532 0
104.869 -1.62998 0
106.197 0.476391 0
104.996 2.65794 0
103.668 0.551509 0
104.933 0.514149 0
106.133 -1.66771 0
108.66 -1.74436 0
108.791 2.5434 0
106.261 2.62015 0
107.396 -1.70584 0
108.726 0.399686 0
107.526 2.58197 0
106.197 0.476391 0
107.461 0.438237 0
108.66 -1.74436 0
111.188 -1.82259 0
111.322 2.46506 0
108.791 2.5434 0
109.924 -1.78328 0
111.255 0.321403 0
110.057 2.50442 0
108.726 0.399686 0
109.99 0.360741 0
111.188 -1.82259 0
113.715 -1.90238 0
113.852 2.38516 0
111.322 2.46506 0
112.452 -1.86229 0
113.784 0.241552 0
112.587 2.4253 0
111.255 0.321403 0
112.519 0.281673 0
113.715 -1.90238 0
116.243 -1.98374 0
116.382 2.30369 0
113.852 2.38516 0
114.979 -1.94287 0
116.312 0.160143 0
115.117 2.34462 0
113.784 0.241552 0
115.048 0.201042 0
116.243 -1.98374 0
118.77 -2.06664 0
118.912 2.22068 0
116.382 2.30369 0
117.507 -2.02499 0
118.841 0.0771877 0
117.647 2.26238 0
116.312 0.160143 0
117.577 0.118858 0
118.77 -2.06664 0
121.298 -2.15107 0
121.442 2.13613 0
118.912 2.22068 0
120.034 -2.10866 0
121.37 -0.00730511 0
120.177 2.1786 0
118.841 0.0771877 0
120.106 0.0351328 0
121.298 -2.15107 0
123.826 -2.23703 0
123.972 2.05006 0
121.442 2.13613 0
122.562 -2.19386 0
123.899 -0.0933247 0
122.707 2.09329 0
121.37 -0.00730511 0
122.635 -0.0501247 0
123.826 -2.23703 0
126.353 -2.32451 0
126.503 1.96247 0
123.972 2.05006 0
125.089 -2.28058 0
126.428 -0.180861 0
125.238 2.00645 0
123.899 -0.0933247 0
125.164 -0.136904 0
126.353 -2.32451 0
128.881 -2.41349 0
129.033 1.87337 0
126.503 1.96247 0
127.617 -2.36881 0
128.957 -0.269904 0
127.768 1.9181 0
126.428 -0.180861 0
127.692 -0.225195 0
128.881 -2.41349 0
131.408 -2.50397 0
131.563 1.78277 0
129.033 1.87337 0
130.145 -2.45855 0
131.486 -0.360442 0
130.298 1.82826 0
128.957 -0.269904 0
130.221 -0.314987 0
131.408 -2.50397 0
133.936 -2.59594 0
134.093 1.69069 0
131.563 1.78277 0
132.672 -2.54977 0
134.015 -0.452467 0
132.828 1.73691 0
131.486 -0.360442 0
132.75 -0.40627 0
133.936 -2.59594 0
136.464 -2.68938 0
136.623 1.59713 0
134.093 1.69069 0
135.2 -2.64247 0
136.543 -0.545967 0
135.358 1.64409 0
134.015 -0.452467 0
135.279 -0.499033 0
136.464 -2.68938 0
138.991 -2.78428 0
139.153 1.50211 0
136.623 1.59713 0
137.727 -2.73665 0
139.072 -0.640933 0
137.888 1.5498 0
136.543 -0.545967 0
137.808 -0.593268 0
138.991 -2.78428 0
141.519 -2.88064 0
141.683 1.40563 0
139.153 1.50211 0
140.255 -2.83228 0
141.601 -0.737355 0
140.418 1.45405 0
139.072 -0.640933 0
140.337 -0.688963 0
141.519 -2.88064 0
144.047 -2.97845 0
144.213 1.3077 0
141.683 1.40563 0
142.783 -2.92937 0
144.13 -0.835221 0
142.948 1.35684 0
141.601 -0.737355 0
142.866 -0.786108 0
144.047 -2.97845 0
146.574 -3.07769 0
146.743 1.20834 0
144.213 1.3077 0
145.31 -3.02789 0
146.659 -0.934522 0
145.478 1.2582 0
144.13 -0.835221 0
145.394 -0.884693 0
146.574 -3.07769 0
149.102 -3.17835 0
149.274 1.10755 0
146.743 1.20834 0
147.838 -3.12784 0
[...]
    <PointData>
      <DataArray type="Float64" NumberOfComponents="3" Name="Displacement" format="ascii">
0 0 0
-0.0130806 -0.00650149 -0.00650149
-0.00780309 -0.00218921 -0.00218921
0 0 0
-0.00712054 -0.00405804 -0.00405804
-0.00985444 -0.00392662 -0.00392662
-0.00378581 -0.00078289 -0.00078289
0 0 0
-0.00469896 -0.00173199 -0.00173199
-0.0130806 -0.00650149 -0.00650149
-0.0243974 -0.0112769 -0.0112769
-0.0162544 -0.00632729 -0.00632729
-0.00780309 -0.00218921 -0.00218921
-0.0187545 -0.00879893 -0.00879893
-0.0201223 -0.00855111 -0.00855111
-0.0119885 -0.00405832 -0.00405832
-0.00985444 -0.00392662 -0.00392662
-0.0150174 -0.00616971 -0.00616971
-0.0243974 -0.0112769 -0.0112769
-0.0358205 -0.0170396 -0.0170396
-0.0247827 -0.012015 -0.012015
-0.0162544 -0.00632729 -0.00632729
-0.0300881 -0.0139889 -0.0139889
-0.0302418 -0.0143365 -0.0143365
-0.0205234 -0.00897062 -0.00897062
-0.0201223 -0.00855111 -0.00855111
-0.0251948 -0.0112547 -0.0112547
-0.0358205 -0.0170396 -0.0170396
-0.047342 -0.0244609 -0.0244609
-0.0332711 -0.0194273 -0.0194273
-0.0247827 -0.012015 -0.012015
-0.0415723 -0.0205255 -0.0205255
-0.0402784 -0.0217442 -0.0217442
-0.0290338 -0.0154955 -0.0154955
-0.0302418 -0.0143365 -0.0143365
-0.0352667 -0.0178222 -0.0178222
-0.047342 -0.0244609 -0.0244609
-0.0589297 -0.0336933 -0.0336933
-0.0416923 -0.0286875 -0.0286875
-0.0332711 -0.0194273 -0.0194273
-0.0531308 -0.0288444 -0.0288444
-0.0502859 -0.0309921 -0.0309921
-0.0374895 -0.0238212 -0.0238212
-0.0402784 -0.0217442 -0.0217442
-0.0452849 -0.0261314 -0.0261314
-0.0589297 -0.0336933 -0.0336933
-0.0705272 -0.0448405 -0.0448405
-0.0500644 -0.0398663 -0.0398663
-0.0416923 -0.0286875 -0.0286875
-0.064729 -0.0390252 -0.0390252
-0.060266 -0.0421491 -0.0421491
-0.0458839 -0.0340351 -0.0340351
-0.0502859 -0.0309921 -0.0309921
-0.0552794 -0.0363298 -0.0363298
-0.0705272 -0.0448405 -0.0448405
-0.0821153 -0.0579162 -0.0579162
-0.0583923 -0.0529834 -0.0529834
-0.0500644 -0.0398663 -0.0398663
-0.0763236 -0.0511367 -0.0511367
-0.0702191 -0.0552444 -0.0552444
-0.0542335 -0.0461821 -0.0461821
-0.060266 -0.0421491 -0.0421491
-0.0652461 -0.0484538 -0.0484538
-0.0821153 -0.0579162 -0.0579162
-0.093674 -0.0729325 -0.0729325
-0.0666836 -0.0680438 -0.0680438
-0.0583923 -0.0529834 -0.0529834
-0.0878991 -0.0651819 -0.0651819
-0.0801401 -0.0702814 -0.0702814
-0.0625422 -0.0602709 -0.0602709
-0.0702191 -0.0552444 -0.0552444
-0.0751838 -0.0625205 -0.0625205
-0.093674 -0.0729325 -0.0729325
-0.105196 -0.0898817 -0.0898817
-0.0749412 -0.0850411 -0.0850411
-0.0666836 -0.0680438 -0.0680438
-0.0994398 -0.081166 -0.081166
-0.0900272 -0.0872548 -0.0872548
-0.0708165 -0.0763009 -0.0763009
-0.0801401 -0.0702814 -0.0702814
-0.085088 -0.0785266 -0.0785266
-0.105196 -0.0898817 -0.0898817
-0.116675 -0.108757 -0.108757
-0.083168 -0.103967 -0.103967
-0.0749412 -0.0850411 -0.0850411
-0.110941 -0.0990792 -0.0990792
-0.0998787 -0.106156 -0.106156
-0.0790583 -0.0942635 -0.0942635
-0.0900272 -0.0872548 -0.0872548
-0.0949574 -0.0964649 -0.0964649
-0.116675 -0.108757 -0.108757
-0.128111 -0.129547 -0.129547
-0.0913655 -0.12481 -0.12481
-0.083168 -0.103967 -0.103967
-0.122399 -0.118913 -0.118913
-0.109695 -0.126973 -0.126973
-0.0872703 -0.114149 -0.114149
-0.0998787 -0.106156 -0.106156
-0.104791 -0.116325 -0.116325
-0.128111 -0.129547 -0.129547
-0.139503 -0.152242 -0.152242
-0.0995356 -0.14756 -0.14756
-0.0913655 -0.12481 -0.12481
-0.133813 -0.140657 -0.140657
-0.119475 -0.149696 -0.149696
-0.0954539 -0.135947 -0.135947
-0.109695 -0.126973 -0.126973
-0.114589 -0.138097 -0.138097
-0.139503 -0.152242 -0.152242
-0.150852 -0.176831 -0.176831
-0.10768 -0.172206 -0.172206
-0.0995356 -0.14756 -0.14756
-0.145183 -0.1643 -0.1643
-0.129221 -0.174315 -0.174315
-0.103611 -0.159647 -0.159647
-0.119475 -0.149696 -0.149696
-0.124352 -0.16177 -0.16177
-0.150852 -0.176831 -0.176831
-0.162159 -0.203303 -0.203303
-0.115799 -0.198738 -0.198738
-0.10768 -0.172206 -0.172206
-0.156511 -0.189832 -0.189832
-0.138934 -0.200818 -0.200818
-0.111742 -0.185237 -0.185237
-0.129221 -0.174315 -0.174315
-0.134082 -0.187332 -0.187332
-0.162159 -0.203303 -0.203303
-0.173425 -0.231648 -0.231648
-0.123895 -0.227145 -0.227145
-0.115799 -0.198738 -0.198738
-0.167797 -0.217242 -0.217242
-0.148615 -0.229196 -0.229196
-0.11985 -0.212708 -0.212708
-0.138934 -0.200818 -0.200818
-0.143778 -0.214774 -0.214774
-0.173425 -0.231648 -0.231648
-0.184651 -0.261857 -0.261857
-0.131968 -0.257418 -0.257418
-0.123895 -0.227145 -0.227145
-0.179043 -0.24652 -0.24652
-0.158264 -0.259437 -0.259437
-0.127934 -0.242049 -0.242049
-0.148615 -0.229196 -0.229196
-0.153443 -0.244084 -0.244084
-0.184651 -0.261857 -0.261857
-0.195839 -0.293917 -0.293917
-0.140021 -0.289544 -0.289544
-0.131968 -0.257418 -0.257418
-0.190249 -0.277656 -0.277656
-0.167884 -0.291532 -0.291532
-0.135997 -0.27325 -0.27325
-0.158264 -0.259437 -0.259437
-0.163078 -0.275254 -0.275254
-0.195839 -0.293917 -0.293917
-0.206989 -0.32782 -0.32782
-0.148054 -0.323516 -0.323516
-0.140021 -0.289544 -0.289544
-0.201418 -0.310639 -0.310639
-0.177476 -0.32547 -0.32547
-0.14404 -0.3063 -0.3063
-0.167884 -0.291532 -0.291532
-0.172684 -0.308272 -0.308272
-0.206989 -0.32782 -0.32782
-0.218104 -0.363556 -0.363556
-0.156069 -0.359321 -0.359321
-0.148054 -0.323516 -0.323516
-0.212551 -0.34546 -0.34546
-0.18704 -0.361242 -0.361242
-0.152063 -0.34119 -0.34119
-0.177476 -0.32547 -0.32547
-0.182261 -0.343128 -0.343128
-0.218104 -0.363556 -0.363556
-0.229183 -0.401113 -0.401113
-0.164066 -0.39695 -0.39695
-0.156069 -0.359321 -0.359321
-0.223648 -0.382107 -0.382107
-0.196579 -0.398836 -0.398836
-0.160069 -0.377908 -0.377908
-0.18704 -0.361242 -0.361242
-0.191813 -0.379812 -0.379812
-0.229183 -0.401113 -0.401113
-0.240229 -0.440482 -0.440482
-0.172047 -0.436393 -0.436393
-0.164066 -0.39695 -0.39695
-0.23471 -0.420572 -0.420572
-0.206092 -0.438243 -0.438243
-0.168058 -0.416446 -0.416446
-0.196579 -0.398836 -0.398836
-0.201338 -0.418314 -0.418314
-0.240229 -0.440482 -0.440482
-0.251243 -0.481652 -0.481652
-0.180013 -0.47764 -0.47764
-0.172047 -0.436393 -0.436393
-0.24574 -0.460843 -0.460843
-0.215582 -0.479453 -0.479453
-0.176032 -0.456792 -0.456792
-0.206092 -0.438243 -0.438243
-0.21084 -0.458624 -0.458624
-0.251243 -0.481652 -0.481652
-0.262225 -0.524615 -0.524615
-0.187965 -0.520679 -0.520679
-0.180013 -0.47764 -0.47764
-0.256738 -0.50291 -0.50291
-0.225049 -0.522455 -0.522455
-0.183991 -0.498936 -0.498936
-0.215582 -0.479453 -0.479453
-0.220318 -0.500731 -0.500731
-0.262225 -0.524615 -0.524615
-0.273177 -0.569358 -0.569358
-0.195905 -0.565502 -0.565502
-0.187965 -0.520679 -0.520679
-0.267705 -0.546764 -0.546764
-0.234495 -0.567239 -0.567239
-0.191936 -0.542868 -0.542868
-0.225049 -0.522455 -0.522455
-0.229774 -0.544625 -0.544625
-0.273177 -0.569358 -0.569358
-0.2841 -0.615872 -0.615872
-0.203832 -0.612098 -0.612098
-0.195905 -0.565502 -0.565502
-0.278642 -0.592394 -0.592394
-0.24392 -0.613795 -0.613795
-0.19987 -0.588579 -0.588579
-0.234495 -0.567239 -0.567239
-0.23921 -0.590297 -0.590297
-0.2841 -0.615872 -0.615872
-0.294995 -0.664147 -0.664147
-0.211749 -0.660456 -0.660456
-0.203832 -0.612098 -0.612098
-0.289551 -0.63979 -0.63979
-0.253325 -0.662113 -0.662113
-0.207792 -0.636057 -0.636057
-0.24392 -0.613795 -0.613795
-0.248625 -0.637735 -0.637735
-0.294995 -0.664147 -0.664147
-0.305862 -0.714173 -0.714173
-0.219656 -0.710567 -0.710567
-0.211749 -0.660456 -0.660456
-0.300432 -0.688942 -0.688942
-0.262713 -0.712183 -0.712183
-0.215704 -0.685293 -0.685293
-0.253325 -0.662113 -0.662113
-0.258021 -0.68693 -0.68693
-0.305862 -0.714173 -0.714173
-0.316703 -0.765939 -0.765939
-0.227555 -0.76242 -0.76242
-0.219656 -0.710567 -0.710567
-0.311286 -0.739839 -0.739839
-0.272083 -0.763993 -0.763993
-0.223607 -0.736276 -0.736276
-0.262713 -0.712183 -0.712183
-0.2674 -0.737871 -0.737871
-0.316703 -0.765939 -0.765939
-0.32752 -0.819436 -0.819436
-0.235446 -0.816004 -0.816004
-0.227555 -0.76242 -0.76242
-0.322115 -0.792472 -0.792472
-0.281436 -0.817535 -0.817535
-0.231502 -0.788996 -0.788996
-0.272083 -0.763993 -0.763993
-0.276761 -0.790549 -0.790549
-0.32752 -0.819436 -0.819436
-0.338312 -0.874653 -0.874653
-0.24333 -0.871311 -0.871311
-0.235446 -0.816004 -0.816004
-0.332919 -0.84683 -0.84683
-0.290774 -0.872798 -0.872798
-0.239389 -0.843443 -0.843443
-0.281436 -0.817535 -0.817535
-0.286107 -0.844952 -0.844952
-0.338312 -0.874653 -0.874653
-0.349081 -0.931579 -0.931579
-0.251209 -0.928329 -0.928329
-0.24333 -0.871311 -0.871311
-0.343699 -0.902903 -0.902903
-0.300098 -0.929772 -0.929772
-0.24727 -0.899607 -0.899607
-0.290774 -0.872798 -0.872798
-0.295438 -0.901072 -0.901072
-0.349081 -0.931579 -0.931579
-0.359827 -0.990206 -0.990206
-0.259083 -0.987048 -0.987048
-0.251209 -0.928329 -0.928329
-0.354457 -0.960681 -0.960681
-0.309408 -0.988445 -0.988445
-0.255146 -0.957476 -0.957476
-0.300098 -0.929772 -0.929772
-0.304754 -0.958897 -0.958897
-0.359827 -0.990206 -0.990206
-0.370552 -1.05052 -1.05052
-0.266952 -1.04746 -1.04746
-0.259083 -0.987048 -0.987048
-0.365192 -1.02015 -1.02015
-0.318705 -1.04881 -1.04881
-0.263018 -1.01704 -1.01704
-0.309408 -0.988445 -0.988445
-0.314058 -1.01842 -1.01842
-0.370552 -1.05052 -1.05052
-0.381257 -1.11252 -1.11252
-0.274819 -1.10955 -1.10955
-0.266952 -1.04746 -1.04746
-0.375907 -1.08131 -1.08131
-0.327991 -1.11085 -1.11085
-0.270886 -1.07829 -1.07829
-0.318705 -1.04881 -1.04881
-0.323349 -1.07962 -1.07962
-0.381257 -1.11252 -1.11252
-0.391942 -1.17618 -1.17618
-0.282684 -1.17331 -1.17331
-0.274819 -1.10955 -1.10955
-0.386602 -1.14414 -1.14414
-0.337265 -1.17457 -1.17457
-0.278752 -1.14122 -1.14122
-0.327991 -1.11085 -1.11085
-0.332629 -1.1425 -1.1425
-0.391942 -1.17618 -1.17618
-0.402608 -1.2415 -1.2415
-0.290547 -1.23873 -1.23873
-0.282684 -1.17331 -1.17331
-0.397277 -1.20864 -1.20864
-0.34653 -1.23994 -1.23994
-0.286615 -1.20582 -1.20582
-0.337265 -1.17457 -1.17457
-0.341899 -1.20705 -1.20705
-0.402608 -1.2415 -1.2415
-0.413256 -1.30848 -1.30848
-0.29841 -1.30581 -1.30581
-0.290547 -1.23873 -1.23873
-0.407934 -1.27479 -1.27479
-0.355785 -1.30697 -1.30697
-0.294478 -1.27206 -1.27206
-0.34653 -1.23994 -1.23994
-0.351159 -1.27325 -1.27325
-0.413256 -1.30848 -1.30848
-0.423887 -1.37709 -1.37709
-0.306272 -1.37452 -1.37452
-0.29841 -1.30581 -1.30581
-0.418573 -1.34258 -1.34258
-0.365032 -1.37563 -1.37563
-0.302341 -1.33996 -1.33996
-0.355785 -1.30697 -1.30697
-0.36041 -1.34109 -1.34109
-0.423887 -1.37709 -1.37709
-0.434501 -1.44733 -1.44733
-0.314136 -1.44486 -1.44486
-0.306272 -1.37452 -1.37452
-0.429196 -1.412 -1.412
-0.374271 -1.44592 -1.44592
-0.310204 -1.40949 -1.40949
-0.365032 -1.37563 -1.37563
-0.369652 -1.41057 -1.41057
-0.434501 -1.44733 -1.44733
-0.4451 -1.51918 -1.51918
-0.322002 -1.51682 -1.51682
-0.314136 -1.44486 -1.44486
-0.439802 -1.48305 -1.48305
-0.383503 -1.51783 -1.51783
-0.318069 -1.48064 -1.48064
-0.374271 -1.44592 -1.44592
-0.378888 -1.48167 -1.48167
-0.4451 -1.51918 -1.51918
-0.455684 -1.59265 -1.59265
-0.32987 -1.59039 -1.59039
-0.322002 -1.51682 -1.51682
-0.450394 -1.55572 -1.55572
-0.392729 -1.59135 -1.59135
-0.325936 -1.5534 -1.5534
-0.383503 -1.51783 -1.51783
-0.388117 -1.55439 -1.55439
-0.455684 -1.59265 -1.59265
-0.466253 -1.66771 -1.66771
-0.337742 -1.66556 -1.66556
-0.32987 -1.59039 -1.59039
-0.46097 -1.62998 -1.62998
-0.40195 -1.66647 -1.66647
-0.333806 -1.62778 -1.62778
-0.392729 -1.59135 -1.59135
-0.39734 -1.62871 -1.62871
-0.466253 -1.66771 -1.66771
-0.47681 -1.74436 -1.74436
-0.345618 -1.74232 -1.74232
-0.337742 -1.66556 -1.66556
-0.471533 -1.70584 -1.70584
-0.411166 -1.74317 -1.74317
-0.341679 -1.70374 -1.70374
-0.40195 -1.66647 -1.66647
-0.406558 -1.70462 -1.70462
-0.47681 -1.74436 -1.74436
-0.487353 -1.82259 -1.82259
-0.353498 -1.82065 -1.82065
-0.345618 -1.74232 -1.74232
-0.482083 -1.78328 -1.78328
-0.420377 -1.82145 -1.82145
-0.349557 -1.78129 -1.78129
-0.411166 -1.74317 -1.74317
-0.415772 -1.78212 -1.78212
-0.487353 -1.82259 -1.82259
-0.497884 -1.90238 -1.90238
-0.361383 -1.90056 -1.90056
-0.353498 -1.82065 -1.82065
-0.49262 -1.86229 -1.86229
-0.429586 -1.90131 -1.90131
-0.35744 -1.86041 -1.86041
-0.420377 -1.82145 -1.82145
-0.424982 -1.86118 -1.86118
-0.497884 -1.90238 -1.90238
-0.508404 -1.98374 -1.98374
-0.369275 -1.98202 -1.98202
-0.361383 -1.90056 -1.90056
-0.503145 -1.94287 -1.94287
-0.438791 -1.98271 -1.98271
-0.365328 -1.9411 -1.9411
-0.429586 -1.90131 -1.90131
-0.434189 -1.94182 -1.94182
-0.508404 -1.98374 -1.98374
-0.518913 -2.06664 -2.06664
-0.377173 -2.06503 -2.06503
-0.369275 -1.98202 -1.98202
-0.51366 -2.02499 -2.02499
-0.447994 -2.06567 -2.06567
-0.373223 -2.02333 -2.02333
-0.438791 -1.98271 -1.98271
-0.443393 -2.024 -2.024
-0.518913 -2.06664 -2.06664
-0.529411 -2.15107 -2.15107
-0.385078 -2.14958 -2.14958
-0.377173 -2.06503 -2.06503
-0.524163 -2.10866 -2.10866
-0.457196 -2.15016 -2.15016
-0.381124 -2.10711 -2.10711
-0.447994 -2.06567 -2.06567
-0.452596 -2.10772 -2.10772
-0.529411 -2.15107 -2.15107
-0.5399 -2.23703 -2.23703
-0.392991 -2.23566 -2.23566
-0.385078 -2.14958 -2.14958
-0.534657 -2.19386 -2.19386
-0.466397 -2.23618 -2.23618
-0.389034 -2.19243 -2.19243
-0.457196 -2.15016 -2.15016
-0.461797 -2.19298 -2.19298
-0.5399 -2.23703 -2.23703
-0.55038 -2.32451 -2.32451
-0.400912 -2.32325 -2.32325
-0.392991 -2.23566 -2.23566
-0.545141 -2.28058 -2.28058
-0.475598 -2.32372 -2.32372
-0.396951 -2.27926 -2.27926
-0.466397 -2.23618 -2.23618
-0.470997 -2.27976 -2.27976
-0.55038 -2.32451 -2.32451
-0.560851 -2.41349 -2.41349
-0.408843 -2.41235 -2.41235
-0.400912 -2.32325 -2.32325
-0.555616 -2.36881 -2.36881
-0.484798 -2.41276 -2.41276
-0.404876 -2.36761 -2.36761
-0.475598 -2.32372 -2.32372
-0.480198 -2.36805 -2.36805
-0.560851 -2.41349 -2.41349
-0.571314 -2.50397 -2.50397
-0.416782 -2.50294 -2.50294
-0.408843 -2.41235 -2.41235
-0.566084 -2.45855 -2.45855
-0.494 -2.5033 -2.5033
-0.412811 -2.45746 -2.45746
-0.484798 -2.41276 -2.41276
-0.489399 -2.45784 -2.45784
-0.571314 -2.50397 -2.50397
-0.58177 -2.59594 -2.59594
-0.424732 -2.59503 -2.59503
-0.416782 -2.50294 -2.50294
-0.576543 -2.54977 -2.54977
-0.503202 -2.59532 -2.59532
-0.420756 -2.5488 -2.5488
-0.494 -2.5033 -2.5033
-0.498601 -2.54913 -2.54913
-0.58177 -2.59594 -2.59594
-0.592218 -2.68938 -2.68938
-0.432692 -2.68858 -2.68858
-0.424732 -2.59503 -2.59503
-0.586995 -2.64247 -2.64247
-0.512407 -2.68882 -2.68882
-0.428711 -2.64162 -2.64162
-0.503202 -2.59532 -2.59532
-0.507804 -2.64189 -2.64189
-0.592218 -2.68938 -2.68938
-0.602661 -2.78428 -2.78428
-0.440663 -2.78361 -2.78361
-0.432692 -2.68858 -2.68858
-0.59744 -2.73665 -2.73665
-0.521613 -2.78379 -2.78379
-0.436676 -2.73591 -2.73591
-0.512407 -2.68882 -2.68882
-0.51701 -2.73612 -2.73612
-0.602661 -2.78428 -2.78428
-0.613097 -2.88064 -2.88064
-0.448646 -2.88009 -2.88009
-0.440663 -2.78361 -2.78361
-0.607879 -2.83228 -2.83228
-0.530822 -2.88021 -2.88021
-0.444653 -2.83167 -2.83167
-0.521613 -2.78379 -2.78379
-0.526217 -2.83182 -2.83182
-0.613097 -2.88064 -2.88064
-0.623527 -2.97845 -2.97845
-0.45664 -2.97801 -2.97801
-0.448646 -2.88009 -2.88009
-0.618312 -2.92937 -2.92937
-0.540035 -2.97808 -2.97808
-0.452641 -2.92887 -2.92887
-0.530822 -2.88021 -2.88021
-0.535428 -2.92896 -2.92896
-0.623527 -2.97845 -2.97845
-0.633952 -3.07769 -3.07769
-0.464646 -3.07737 -3.07737
-0.45664 -2.97801 -2.97801
-0.62874 -3.02789 -3.02789
-0.549251 -3.07738 -3.07738
-0.460642 -3.02752 -3.02752
-0.540035 -2.97808 -2.97808
-0.544642 -3.02755 -3.02755
-0.633952 -3.07769 -3.07769
-0.644373 -3.17835 -3.17835
-0.472666 -3.17816 -3.17816
-0.464646 -3.07737 -3.07737
-0.639163 -3.12784 -3.12784
-0.55847 -3.1781 -3.1781
-0.468654 -3.12759 -3.12759
-0.549251 -3.07738 -3.07738
-0.55386 -3.12756 -3.12756
-0.644373 -3.17835 -3.17835
-0.654789 -3.28043 -3.28043
-0.480698 -3.28036 -3.28036
-0.472666 -3.17816 -3.17816
-0.649581 -3.22921 -3.22921
-0.567694 -3.28024 -3.28024
-0.47668 -3.22908 -3.22908
-0.55847 -3.1781 -3.1781
-0.563082 -3.229 -3.229
-0.654789 -3.28043 -3.28043
-0.665201 -3.38391 -3.38391
-0.488743 -3.38396 -3.38396
-0.480698 -3.28036 -3.28036
-0.659995 -3.33199 -3.33199
-0.576923 -3.38379 -3.38379
-0.484719 -3.33199 -3.33199
-0.567694 -3.28024 -3.28024
-0.572308 -3.33184 -3.33184
-0.665201 -3.38391 -3.38391
-0.675609 -3.48879 -3.48879
-0.496803 -3.48896 -3.48896
-0.488743 -3.38396 -3.38396
-0.670405 -3.43617 -3.43617
-0.586157 -3.48873 -3.48873
-0.492771 -3.43629 -3.43629
-0.576923 -3.38379 -3.38379
-0.581539 -3.43608 -3.43608
-0.675609 -3.48879 -3.48879
-0.686014 -3.59504 -3.59504
-0.504876 -3.59535 -3.59535
-0.496803 -3.48896 -3.48896
-0.680812 -3.54174 -3.54174
-0.595396 -3.59505 -3.59505
-0.500838 -3.54198 -3.54198
-0.586157 -3.48873 -3.48873
-0.590776 -3.54172 -3.54172
-0.686014 -3.59504 -3.59504
-0.696416 -3.70268 -3.70268
-0.512964 -3.7031 -3.7031
-0.504876 -3.59535 -3.59535
-0.691215 -3.64869 -3.64869
-0.604641 -3.70274 -3.70274
-0.508919 -3.64905 -3.64905
-0.595396 -3.59505 -3.59505
-0.600018 -3.64873 -3.64873
-0.696416 -3.70268 -3.70268
-0.706815 -3.81167 -3.81167
-0.521067 -3.81222 -3.81222
-0.512964 -3.7031 -3.7031
-0.701616 -3.757 -3.757
-0.613892 -3.8118 -3.8118
-0.517014 -3.75749 -3.75749
-0.604641 -3.70274 -3.70274
-0.609266 -3.7571 -3.7571
-0.706815 -3.81167 -3.81167
-0.717212 -3.92202 -3.92202
-0.529185 -3.9227 -3.9227
-0.521067 -3.81222 -3.81222
-0.712014 -3.86668 -3.86668
-0.62315 -3.92222 -3.92222
-0.525124 -3.86729 -3.86729
-0.613892 -3.8118 -3.8118
-0.61852 -3.86684 -3.86684
-0.717212 -3.92202 -3.92202
-0.727607 -4.03371 -4.03371
-0.537318 -4.03451 -4.03451
-0.529185 -3.9227 -3.9227
-0.72241 -3.9777 -3.9777
-0.632413 -4.03397 -4.03397
-0.53325 -3.97844 -3.97844
-0.62315 -3.92222 -3.92222
-0.627781 -3.97793 -3.97793
-0.727607 -4.03371 -4.03371
-0.738 -4.14673 -4.14673
-0.545467 -4.14766 -4.14766
-0.537318 -4.03451 -4.03451
-0.732804 -4.09005 -4.09005
-0.641684 -4.14706 -4.14706
-0.541391 -4.09092 -4.09092
-0.632413 -4.03397 -4.03397
-0.637048 -4.09035 -4.09035
-0.738 -4.14673 -4.14673
-0.748391 -4.26108 -4.26108
-0.553631 -4.26214 -4.26214
-0.545467 -4.14766 -4.14766
-0.743196 -4.20374 -4.20374
-0.650962 -4.26147 -4.26147
-0.549547 -4.20473 -4.20473
-0.641684 -4.14706 -4.14706
-0.646322 -4.2041 -4.2041
-0.748391 -4.26108 -4.26108
-0.758781 -4.37673 -4.37673
-0.561812 -4.37792 -4.37792
-0.553631 -4.26214 -4.26214
-0.753586 -4.31874 -4.31874
-0.660247 -4.37719 -4.37719
-0.55772 -4.31986 -4.31986
-0.650962 -4.26147 -4.26147
-0.655604 -4.31916 -4.31916
-0.758781 -4.37673 -4.37673
-0.76917 -4.49369 -4.49369
-0.570009 -4.49501 -4.49501
-0.561812 -4.37792 -4.37792
-0.763975 -4.43505 -4.43505
-0.66954 -4.49421 -4.49421
-0.565908 -4.4363 -4.4363
-0.660247 -4.37719 -4.37719
-0.664893 -4.43554 -4.43554
-0.76917 -4.49369 -4.49369
-0.779557 -4.61194 -4.61194
-0.578222 -4.61338 -4.61338
-0.570009 -4.49501 -4.49501
-0.774364 -4.55266 -4.55266
-0.67884 -4.61253 -4.61253
-0.574113 -4.55403 -4.55403
-0.66954 -4.49421 -4.49421
-0.674189 -4.55321 -4.55321
-0.779557 -4.61194 -4.61194
-0.789944 -4.73147 -4.73147
-0.586452 -4.73304 -4.73304
-0.578222 -4.61338 -4.61338
-0.784751 -4.67155 -4.67155
-0.688149 -4.73212 -4.73212
-0.582335 -4.67305 -4.67305
-0.67884 -4.61253 -4.61253
-0.683494 -4.67217 -4.67217
-0.789944 -4.73147 -4.73147
-0.80033 -4.85228 -4.85228
-0.594698 -4.85398 -4.85398
-0.586452 -4.73304 -4.73304
-0.795137 -4.79172 -4.79172
-0.697465 -4.85299 -4.85299
-0.590573 -4.79335 -4.79335
-0.688149 -4.73212 -4.73212
-0.692806 -4.7924 -4.7924
-0.80033 -4.85228 -4.85228
-0.810716 -4.97434 -4.97434
-0.602962 -4.97617 -4.97617
-0.594698 -4.85398 -4.85398
-0.805523 -4.91315 -4.91315
-0.70679 -4.97512 -4.97512
-0.598828 -4.91491 -4.91491
-0.697465 -4.85299 -4.85299
-0.702127 -4.9139 -4.9139
-0.810716 -4.97434 -4.97434
-0.821101 -5.09766 -5.09766
-0.611243 -5.09961 -5.09961
-0.602962 -4.97617 -4.97617
-0.815909 -5.03584 -5.03584
-0.716123 -5.0985 -5.0985
-0.6071 -5.03773 -5.03773
-0.70679 -4.97512 -4.97512
-0.711455 -5.03666 -5.03666
-0.821101 -5.09766 -5.09766
-0.831487 -5.22221 -5.22221
-0.619541 -5.2243 -5.2243
-0.611243 -5.09961 -5.09961
-0.826294 -5.15978 -5.15978