<?xml version="1.0"?>
<VTKFile type="UnstructuredGrid">
  <UnstructuredGrid>
  <Piece NumberOfPoints="12411"  NumberOfCells="1379">
    <Points>
      <DataArray type="Float64" NumberOfComponents="3" format="ascii">
0 0 0
2.53422 -0.00191898 0
2.53578 4.28507 0
0 4.28571 0
1.26694 -0.00119633 0
2.53517 2.1417 0
1.26792 4.28548 0
0 2.14286 0
1.26765 2.14235 0
2.53422 -0.00191898 0
5.06897 -0.00333263 0
5.07137 4.28384 0
2.53578 4.28507 0
3.80159 -0.0025991 0
5.07023 2.14033 0
3.80358 4.28451 0
2.53517 2.1417 0
3.80269 2.14103 0
5.06897 -0.00333263 0
7.60368 -0.00503817 0
7.60693 4.28216 0
5.07137 4.28384 0
6.33633 -0.00413542 0
7.60532 2.13862 0
6.33915 4.28306 0
5.07023 2.14033 0
6.33777 2.13953 0
7.60368 -0.00503817 0
10.1384 -0.00723297 0
10.1425 4.27997 0
7.60693 4.28216 0
8.87103 -0.00606925 0
10.1404 2.13643 0
8.87472 4.28113 0
7.60532 2.13862 0
8.87288 2.13759 0
10.1384 -0.00723297 0
12.673 -0.00996235 0
12.6781 4.27724 0
10.1425 4.27997 0
11.4057 -0.00852897 0
12.6756 2.13369 0
11.4103 4.27867 0
10.1404 2.13643 0
11.408 2.13513 0
12.673 -0.00996235 0
15.2077 -0.013257 0
15.2137 4.27393 0
12.6781 4.27724 0
13.9404 -0.0115383 0
15.2107 2.1304 0
13.9459 4.27566 0
12.6756 2.13369 0
13.9431 2.13212 0
15.2077 -0.013257 0
17.7424 -0.0171211 0
17.7494 4.27006 0
15.2137 4.27393 0
16.475 -0.0151176 0
17.7459 2.12653 0
16.4815 4.27207 0
15.2107 2.1304 0
16.4783 2.12854 0
17.7424 -0.0171211 0
20.2771 -0.0215583 0
20.285 4.26562 0
17.7494 4.27006 0
19.0097 -0.0192681 0
20.281 2.12209 0
19.0172 4.26791 0
17.7459 2.12653 0
19.0135 2.12438 0
20.2771 -0.0215583 0
22.8117 -0.0265665 0
22.8206 4.2606 0
20.285 4.26562 0
21.5444 -0.0239912 0
22.8162 2.11708 0
21.5528 4.26318 0
20.281 2.12209 0
21.5486 2.11965 0
22.8117 -0.0265665 0
25.3465 -0.0321437 0
25.3563 4.25501 0
22.8206 4.2606 0
24.0791 -0.0292842 0
25.3514 2.11149 0
24.0885 4.25788 0
22.8162 2.11708 0
24.0838 2.11436 0
25.3465 -0.0321437 0
27.8812 -0.0382866 0
27.892 4.24886 0
25.3563 4.25501 0
26.6138 -0.0351446 0
27.8866 2.10535 0
26.6242 4.25201 0
25.3514 2.11149 0
26.619 2.10849 0
27.8812 -0.0382866 0
30.4159 -0.0449922 0
30.4277 4.24214 0
27.892 4.24886 0
29.1485 -0.0415692 0
30.4218 2.09864 0
29.1598 4.24557 0
27.8866 2.10535 0
29.1542 2.10206 0
30.4159 -0.0449922 0
32.9507 -0.0522574 0
32.9634 4.23487 0
30.4277 4.24214 0
31.6833 -0.048555 0
32.957 2.09136 0
31.6955 4.23857 0
30.4218 2.09864 0
31.6894 2.09507 0
32.9507 -0.0522574 0
35.4855 -0.0600791 0
35.4991 4.22703 0
32.9634 4.23487 0
34.2181 -0.0560989 0
35.4923 2.08354 0
34.2312 4.23102 0
32.957 2.09136 0
34.2247 2.08752 0
35.4855 -0.0600791 0
38.0202 -0.0684541 0
38.0348 4.21865 0
35.4991 4.22703 0
36.7528 -0.0641976 0
38.0275 2.07516 0
36.767 4.22291 0
35.4923 2.08354 0
36.7599 2.07942 0
38.0202 -0.0684541 0
40.5551 -0.0773795 0
40.5706 4.20971 0
38.0348 4.21865 0
39.2876 -0.0728482 0
40.5628 2.06622 0
39.3027 4.21425 0
38.0275 2.07516 0
39.2952 2.07076 0
40.5551 -0.0773795 0
43.0899 -0.0868523 0
43.1063 4.20023 0
40.5706 4.20971 0
41.8225 -0.0820477 0
43.0981 2.05675 0
41.8384 4.20504 0
40.5628 2.06622 0
41.8305 2.06155 0
43.0899 -0.0868523 0
45.6247 -0.0968693 0
45.6421 4.1902 0
43.1063 4.20023 0
44.3573 -0.0917929 0
45.6334 2.04672 0
44.3742 4.19528 0
43.0981 2.05675 0
44.3657 2.0518 0
45.6247 -0.0968693 0
48.1596 -0.107428 0
48.1778 4.17963 0
45.6421 4.1902 0
46.8921 -0.102081 0
48.1687 2.03616 0
46.9099 4.18498 0
45.6334 2.04672 0
46.901 2.04151 0
48.1596 -0.107428 0
50.6944 -0.118524 0
50.7136 4.16852 0
48.1778 4.17963 0
49.427 -0.112909 0
50.704 2.02506 0
49.4457 4.17414 0
48.1687 2.03616 0
49.4364 2.03067 0
50.6944 -0.118524 0
53.2293 -0.130156 0
53.2494 4.15688 0
50.7136 4.16852 0
51.9619 -0.124273 0
53.2394 2.01342 0
51.9815 4.16277 0
50.704 2.02506 0
51.9717 2.0193 0
53.2293 -0.130156 0
55.7642 -0.14232 0
55.7852 4.1447 0
53.2494 4.15688 0
54.4968 -0.136171 0
55.7747 2.00125 0
54.5173 4.15086 0
53.2394 2.01342 0
54.507 2.0074 0
55.7642 -0.14232 0
58.2991 -0.155013 0
58.321 4.132 0
55.7852 4.1447 0
57.0317 -0.1486 0
58.3101 1.98855 0
57.0531 4.13842 0
55.7747 2.00125 0
57.0424 1.99496 0
58.2991 -0.155013 0
60.8341 -0.168232 0
60.8568 4.11877 0
58.321 4.132 0
59.5666 -0.161557 0
60.8455 1.97532 0
59.5889 4.12545 0
58.3101 1.98855 0
59.5778 1.982 0
60.8341 -0.168232 0
63.369 -0.181974 0
63.3926 4.10501 0
60.8568 4.11877 0
62.1015 -0.175038 0
63.3808 1.96157 0
62.1247 4.11195 0
60.8455 1.97532 0
62.1131 1.96851 0
63.369 -0.181974 0
65.904 -0.196237 0
65.9285 4.09073 0
63.3926 4.10501 0
64.6365 -0.189041 0
65.9162 1.9473 0
64.6606 4.09794 0
63.3808 1.96157 0
64.6485 1.9545 0
65.904 -0.196237 0
68.4389 -0.211017 0
68.4643 4.07594 0
65.9285 4.09073 0
67.1715 -0.203562 0
68.4516 1.93252 0
67.1964 4.0834 0
65.9162 1.9473 0
67.1839 1.93998 0
68.4389 -0.211017 0
70.9739 -0.22631 0
71.0002 4.06064 0
68.4643 4.07594 0
69.7064 -0.218599 0
70.9871 1.91722 0
69.7323 4.06835 0
68.4516 1.93252 0
69.7194 1.92493 0
70.9739 -0.22631 0
73.5089 -0.242115 0
73.536 4.04482 0
71.0002 4.06064 0
72.2414 -0.234149 0
73.5225 1.90141 0
72.2681 4.05279 0
70.9871 1.91722 0
72.2548 1.90938 0
73.5089 -0.242115 0
76.044 -0.258428 0
76.0719 4.02849 0
73.536 4.04482 0
74.7765 -0.250208 0
76.058 1.88509 0
74.804 4.03672 0
73.5225 1.90141 0
74.7902 1.89331 0
76.044 -0.258428 0
78.579 -0.275246 0
78.6078 4.01166 0
76.0719 4.02849 0
77.3115 -0.266774 0
78.5934 1.86826 0
77.3399 4.02014 0
76.058 1.88509 0
77.3257 1.87674 0
78.579 -0.275246 0
81.114 -0.292566 0
81.1437 3.99433 0
78.6078 4.01166 0
79.8465 -0.283843 0
81.1289 1.85093 0
79.8758 4.00306 0
78.5934 1.86826 0
79.8612 1.85966 0
81.114 -0.292566 0
83.6491 -0.310385 0
83.6796 3.97649 0
81.1437 3.99433 0
82.3816 -0.301413 0
83.6644 1.83311 0
82.4117 3.98547 0
81.1289 1.85093 0
82.3966 1.84208 0
83.6491 -0.310385 0
86.1842 -0.3287 0
86.2155 3.95817 0
83.6796 3.97649 0
84.9167 -0.319481 0
86.1999 1.81479 0
84.9476 3.96739 0
83.6644 1.83311 0
84.9321 1.82401 0
86.1842 -0.3287 0
88.7193 -0.347508 0
88.7515 3.93934 0
86.2155 3.95817 0
87.4517 -0.338043 0
88.7354 1.79597 0
87.4835 3.94882 0
86.1999 1.81479 0
87.4676 1.80544 0
88.7193 -0.347508 0
91.2544 -0.366806 0
91.2874 3.92003 0
88.7515 3.93934 0
89.9868 -0.357096 0
91.2709 1.77666 0
90.0194 3.92975 0
88.7354 1.79597 0
90.0031 1.78638 0
91.2544 -0.366806 0
93.7895 -0.386591 0
93.8233 3.90023 0
91.2874 3.92003 0
92.522 -0.376638 0
93.8064 1.75687 0
92.5554 3.91019 0
91.2709 1.77666 0
92.5387 1.76683 0
93.7895 -0.386591 0
96.3246 -0.40686 0
96.3593 3.87995 0
93.8233 3.90023 0
95.0571 -0.396665 0
96.342 1.7366 0
95.0913 3.89015 0
93.8064 1.75687 0
95.0742 1.74679 0
96.3246 -0.40686 0
98.8598 -0.427609 0
98.8952 3.85919 0
96.3593 3.87995 0
97.5922 -0.417175 0
98.8775 1.71584 0
97.6273 3.86963 0
96.342 1.7366 0
97.6098 1.72628 0
98.8598 -0.427609 0
101.395 -0.448837 0
101.431 3.83794 0
98.8952 3.85919 0
100.127 -0.438164 0
101.413 1.6946 0
100.163 3.84862 0
98.8775 1.71584 0
100.145 1.70528 0
101.395 -0.448837 0
103.93 -0.470539 0
103.967 3.81623 0
101.431 3.83794 0
102.663 -0.459629 0
103.949 1.67289 0
102.699 3.82714 0
101.413 1.6946 0
102.681 1.68381 0
103.93 -0.470539 0
106.465 -0.492714 0
106.503 3.79404 0
103.967 3.81623 0
105.198 -0.481568 0
106.484 1.65071 0
105.235 3.80519 0
103.949 1.67289 0
105.216 1.66186 0
106.465 -0.492714 0
109.001 -0.515357 0
109.039 3.77138 0
106.503 3.79404 0
107.733 -0.503977 0
109.02 1.62806 0
107.771 3.78277 0
106.484 1.65071 0
107.752 1.63944 0
109.001 -0.515357 0
111.536 -0.538466 0
111.575 3.74826 0
109.039 3.77138 0
110.268 -0.526853 0
111.555 1.60494 0
110.307 3.75988 0
109.02 1.62806 0
110.288 1.61656 0
111.536 -0.538466 0
114.071 -0.562037 0
114.111 3.72467 0
111.575 3.74826 0
112.803 -0.550194 0
114.091 1.58136 0
112.843 3.73652 0
111.555 1.60494 0
112.823 1.59321 0
114.071 -0.562037 0
116.606 -0.586069 0
116.647 3.70062 0
114.111 3.72467 0
115.339 -0.573996 0
116.627 1.55733 0
115.379 3.7127 0
114.091 1.58136 0
115.359 1.5694 0
116.606 -0.586069 0
119.141 -0.610557 0
119.183 3.67612 0
116.647 3.70062 0
117.874 -0.598256 0
119.162 1.53283 0
117.915 3.68843 0
116.627 1.55733 0
117.895 1.54513 0
119.141 -0.610557 0
121.677 -0.635499 0
121.719 3.65116 0
119.183 3.67612 0
120.409 -0.622972 0
121.698 1.50788 0
120.451 3.6637 0
119.162 1.53283 0
120.43 1.52041 0
121.677 -0.635499 0
124.212 -0.660892 0
124.255 3.62575 0
121.719 3.65116 0
122.944 -0.648139 0
124.234 1.48248 0
122.987 3.63851 0
121.698 1.50788 0
122.966 1.49523 0
124.212 -0.660892 0
126.747 -0.686732 0
126.791 3.5999 0
124.255 3.62575 0
125.48 -0.673756 0
126.769 1.45663 0
125.523 3.61288 0
124.234 1.48248 0
125.502 1.46961 0
126.747 -0.686732 0
129.283 -0.713018 0
129.327 3.5736 0
126.791 3.5999 0
128.015 -0.69982 0
129.305 1.43034 0
128.059 3.5868 0
126.769 1.45663 0
128.037 1.44354 0
129.283 -0.713018 0
131.818 -0.739744 0
131.863 3.54685 0
129.327 3.5736 0
130.55 -0.726326 0
131.841 1.4036 0
130.595 3.56028 0
129.305 1.43034 0
130.573 1.41702 0
131.818 -0.739744 0
134.353 -0.76691 0
134.4 3.51967 0
131.863 3.54685 0
133.086 -0.753272 0
134.376 1.37643 0
133.132 3.53332 0
131.841 1.4036 0
133.109 1.39007 0
134.353 -0.76691 0
136.889 -0.794511 0
136.936 3.49206 0
134.4 3.51967 0
135.621 -0.780656 0
136.912 1.34882 0
135.668 3.50592 0
134.376 1.37643 0
135.644 1.36268 0
136.889 -0.794511 0
139.424 -0.822545 0
139.472 3.46401 0
136.936 3.49206 0
138.156 -0.808474 0
139.448 1.32078 0
138.204 3.47809 0
136.912 1.34882 0
138.18 1.33485 0
139.424 -0.822545 0
141.959 -0.851008 0
142.008 3.43553 0
139.472 3.46401 0
140.692 -0.836723 0
141.984 1.29231 0
140.74 3.44982 0
139.448 1.32078 0
140.716 1.30659 0
141.959 -0.851008 0
144.495 -0.879898 0
144.544 3.40662 0
142.008 3.43553 0
143.227 -0.8654 0
144.519 1.26341 0
143.276 3.42113 0
141.984 1.29231 0
143.252 1.27791 0
144.495 -0.879898 0
147.03 -0.909211 0
147.08 3.37729 0
144.544 3.40662 0
145.763 -0.894502 0
147.055 1.23409 0
145.812 3.39201 0
144.519 1.26341 0
145.787 1.2488 0
147.03 -0.909211 0
149.566 -0.938945 0
149.616 3.34754 0
147.08 3.37729 0
148.298 -0.924026 0
[...]
    <PointData>
      <DataArray type="Float64" NumberOfComponents="3" Name="Displacement" format="ascii">
0 0 0
-0.00384674 -0.00191898 -0.00191898
-0.00229334 -0.000648301 -0.000648301
0 0 0
-0.00209313 -0.00119633 -0.00119633
-0.0028971 -0.00115978 -0.00115978
-0.00111283 -0.000232318 -0.000232318
0 0 0
-0.00138169 -0.000511217 -0.000511217
-0.00384674 -0.00191898 -0.00191898
-0.0071752 -0.00333263 -0.00333263
-0.00477656 -0.00187201 -0.00187201
-0.00229334 -0.000648301 -0.000648301
-0.00551585 -0.0025991 -0.0025991
-0.00591552 -0.00252831 -0.00252831
-0.00352314 -0.00120105 -0.00120105
-0.0028971 -0.00115978 -0.00115978
-0.00441482 -0.00182344 -0.00182344
-0.0071752 -0.00333263 -0.00333263
-0.0105331 -0.00503817 -0.00503817
-0.0072822 -0.00355343 -0.00355343
-0.00477656 -0.00187201 -0.00187201
-0.0088482 -0.00413542 -0.00413542
-0.00888977 -0.00423974 -0.00423974
-0.00603087 -0.00265354 -0.00265354
-0.00591552 -0.00252831 -0.00252831
-0.00740651 -0.00332826 -0.00332826
-0.0105331 -0.00503817 -0.00503817
-0.0139185 -0.00723297 -0.00723297
-0.00977537 -0.0057435 -0.0057435
-0.0072822 -0.00355343 -0.00355343
-0.0122233 -0.00606925 -0.00606925
-0.0118386 -0.00642965 -0.00642965
-0.00853093 -0.0045819 -0.0045819
-0.00888977 -0.00423974 -0.00423974
-0.0103663 -0.00527036 -0.00527036
-0.0139185 -0.00723297 -0.00723297
-0.0173221 -0.00996235 -0.00996235
-0.0122476 -0.0084785 -0.0084785
-0.00977537 -0.0057435 -0.0057435
-0.015619 -0.00852897 -0.00852897
-0.0147776 -0.00916234 -0.00916234
-0.0110139 -0.00704133 -0.00704133
-0.0118386 -0.00642965 -0.00642965
-0.0133091 -0.00772615 -0.00772615
-0.0173221 -0.00996235 -0.00996235
-0.020727 -0.013257 -0.013257
-0.0147038 -0.0117794 -0.0117794
-0.0122476 -0.0084785 -0.0084785
-0.0190249 -0.0115383 -0.0115383
-0.0177069 -0.0124583 -0.0124583
-0.0134775 -0.0100576 -0.0100576
-0.0147776 -0.00916234 -0.00916234
-0.0162435 -0.0107393 -0.0107393
-0.020727 -0.013257 -0.013257
-0.0241275 -0.0171211 -0.0171211
-0.0171451 -0.0156522 -0.0156522
-0.0147038 -0.0117794 -0.0117794
-0.0224282 -0.0151176 -0.0151176
-0.0206264 -0.0163264 -0.0163264
-0.0159262 -0.0136442 -0.0136442
-0.0177069 -0.0124583 -0.0124583
-0.0191679 -0.0143207 -0.0143207
-0.0241275 -0.0171211 -0.0171211
-0.0275173 -0.0215583 -0.0215583
-0.0195736 -0.0200983 -0.0200983
-0.0171451 -0.0156522 -0.0156522
-0.0258239 -0.0192681 -0.0192681
-0.0235344 -0.0207677 -0.0207677
-0.0183609 -0.0178036 -0.0178036
-0.0206264 -0.0163264 -0.0163264
-0.0220819 -0.0184755 -0.0184755
-0.0275173 -0.0215583 -0.0215583
-0.0308938 -0.0265665 -0.0265665
-0.0219896 -0.0251161 -0.0251161
-0.0195736 -0.0200983 -0.0200983
-0.0292073 -0.0239912 -0.0239912
-0.0264299 -0.0257808 -0.0257808
-0.0207831 -0.0225359 -0.0225359
-0.0235344 -0.0207677 -0.0207677
-0.0249838 -0.0232029 -0.0232029
-0.0308938 -0.0265665 -0.0265665
-0.0342553 -0.0321437 -0.0321437
-0.0243938 -0.0307031 -0.0307031
-0.0219896 -0.0251161 -0.0251161
-0.0325765 -0.0292842 -0.0292842
-0.0293123 -0.0313629 -0.0313629
-0.0231932 -0.0278386 -0.0278386
-0.0264299 -0.0257808 -0.0257808
-0.0278728 -0.0285009 -0.0285009
-0.0342553 -0.0321437 -0.0321437
-0.037601 -0.0382866 -0.0382866
-0.0267864 -0.0368561 -0.0368561
-0.0243938 -0.0307031 -0.0307031
-0.0359302 -0.0351446 -0.0351446
-0.0321813 -0.0375111 -0.0375111
-0.0255916 -0.033709 -0.033709
-0.0293123 -0.0313629 -0.0313629
-0.0307485 -0.0343664 -0.0343664
-0.037601 -0.0382866 -0.0382866
-0.0409306 -0.0449922 -0.0449922
-0.0291676 -0.043572 -0.043572
-0.0267864 -0.0368561 -0.0368561
-0.0392679 -0.0415692 -0.0415692
-0.0350365 -0.0442221 -0.0442221
-0.0279785 -0.0401438 -0.0401438
-0.0321813 -0.0375111 -0.0375111
-0.0336106 -0.0407964 -0.0407964
-0.0409306 -0.0449922 -0.0449922
-0.0442439 -0.0522574 -0.0522574
-0.0315376 -0.0508476 -0.0508476
-0.0291676 -0.043572 -0.043572
-0.0425893 -0.048555 -0.048555
-0.0378781 -0.0514929 -0.0514929
-0.030354 -0.04714 -0.04714
-0.0350365 -0.0442221 -0.0442221
-0.036459 -0.0477877 -0.0477877
-0.0442439 -0.0522574 -0.0522574
-0.047541 -0.0600791 -0.0600791
-0.0338963 -0.05868 -0.05868
-0.0315376 -0.0508476 -0.0508476
-0.0458945 -0.0560989 -0.0560989
-0.0407059 -0.0593202 -0.0593202
-0.0327183 -0.0546944 -0.0546944
-0.0378781 -0.0514929 -0.0514929
-0.0392937 -0.0553371 -0.0553371
-0.047541 -0.0600791 -0.0600791
-0.050822 -0.0684541 -0.0684541
-0.0362441 -0.0670659 -0.0670659
-0.0338963 -0.05868 -0.05868
-0.0491835 -0.0641976 -0.0641976
-0.0435203 -0.067701 -0.067701
-0.0350716 -0.0628039 -0.0628039
-0.0407059 -0.0593202 -0.0593202
-0.0421148 -0.0634416 -0.0634416
-0.050822 -0.0684541 -0.0684541
-0.0540869 -0.0773795 -0.0773795
-0.0385809 -0.0760023 -0.0760023
-0.0362441 -0.0670659 -0.0670659
-0.0524564 -0.0728482 -0.0728482
-0.0463211 -0.0766323 -0.0766323
-0.0374138 -0.0714655 -0.0714655
-0.0435203 -0.067701 -0.067701
-0.0449224 -0.072098 -0.072098
-0.0540869 -0.0773795 -0.0773795
-0.0573358 -0.0868523 -0.0868523
-0.0409069 -0.0854862 -0.0854862
-0.0385809 -0.0760023 -0.0760023
-0.0557133 -0.0820477 -0.0820477
-0.0491085 -0.0861109 -0.0861109
-0.0397452 -0.080676 -0.080676
-0.0463211 -0.0766323 -0.0766323
-0.0477165 -0.0813033 -0.0813033
-0.0573358 -0.0868523 -0.0868523
-0.0605689 -0.0968693 -0.0968693
-0.0432222 -0.0955146 -0.0955146
-0.0409069 -0.0854862 -0.0854862
-0.0589543 -0.0917929 -0.0917929
-0.0518827 -0.0961339 -0.0961339
-0.0420659 -0.0904326 -0.0904326
-0.0491085 -0.0861109 -0.0861109
-0.0504973 -0.0910546 -0.0910546
-0.0605689 -0.0968693 -0.0968693
-0.0637862 -0.107428 -0.107428
-0.0455268 -0.106084 -0.106084
-0.0432222 -0.0955146 -0.0955146
-0.0621795 -0.102081 -0.102081
-0.0546437 -0.106698 -0.106698
-0.0443758 -0.100732 -0.100732
-0.0518827 -0.0961339 -0.0961339
-0.0532649 -0.101349 -0.101349
-0.0637862 -0.107428 -0.107428
-0.066988 -0.118524 -0.118524
-0.047821 -0.117193 -0.117193
-0.0455268 -0.106084 -0.106084
-0.0653891 -0.112909 -0.112909
-0.0573917 -0.117801 -0.117801
-0.0466752 -0.111571 -0.111571
-0.0546437 -0.106698 -0.106698
-0.0560193 -0.112183 -0.112183
-0.066988 -0.118524 -0.118524
-0.0701742 -0.130156 -0.130156
-0.0501048 -0.128836 -0.128836
-0.047821 -0.117193 -0.117193
-0.068583 -0.124273 -0.124273
-0.0601266 -0.129439 -0.129439
-0.0489642 -0.122948 -0.122948
-0.0573917 -0.117801 -0.117801
-0.0587608 -0.123553 -0.123553
-0.0701742 -0.130156 -0.130156
-0.073345 -0.14232 -0.14232
-0.0523782 -0.141012 -0.141012
-0.0501048 -0.128836 -0.128836
-0.0717615 -0.136171 -0.136171
-0.0628487 -0.141609 -0.141609
-0.0512428 -0.134858 -0.134858
-0.0601266 -0.129439 -0.129439
-0.0614893 -0.135458 -0.135458
-0.073345 -0.14232 -0.14232
-0.0765004 -0.155013 -0.155013
-0.0546415 -0.153718 -0.153718
-0.0523782 -0.141012 -0.141012
-0.0749246 -0.1486 -0.1486
-0.0655581 -0.154309 -0.154309
-0.0535111 -0.147299 -0.147299
-0.0628487 -0.141609 -0.141609
-0.064205 -0.147893 -0.147893
-0.0765004 -0.155013 -0.155013
-0.0796406 -0.168232 -0.168232
-0.0568946 -0.166949 -0.166949
-0.0546415 -0.153718 -0.153718
-0.0780724 -0.161557 -0.161557
-0.0682547 -0.167535 -0.167535
-0.0557693 -0.160268 -0.160268
-0.0655581 -0.154309 -0.154309
-0.066908 -0.160856 -0.160856
-0.0796406 -0.168232 -0.168232
-0.0827657 -0.181974 -0.181974
-0.0591377 -0.180704 -0.180704
-0.0568946 -0.166949 -0.166949
-0.0812051 -0.175038 -0.175038
-0.0709388 -0.181284 -0.181284
-0.0580174 -0.173761 -0.173761
-0.0682547 -0.167535 -0.167535
-0.0695983 -0.174344 -0.174344
-0.0827657 -0.181974 -0.181974
-0.0858757 -0.196237 -0.196237
-0.0613709 -0.194979 -0.194979
-0.0591377 -0.180704 -0.180704
-0.0843226 -0.189041 -0.189041
-0.0736104 -0.195553 -0.195553
-0.0602555 -0.187777 -0.187777
-0.0709388 -0.181284 -0.181284
-0.0722762 -0.188353 -0.188353
-0.0858757 -0.196237 -0.196237
-0.0889708 -0.211017 -0.211017
-0.0635942 -0.209772 -0.209772
-0.0613709 -0.194979 -0.194979
-0.0874251 -0.203562 -0.203562
-0.0762696 -0.210339 -0.210339
-0.0624837 -0.202311 -0.202311
-0.0736104 -0.195553 -0.195553
-0.0749415 -0.202881 -0.202881
-0.0889708 -0.211017 -0.211017
-0.092051 -0.22631 -0.22631
-0.0658078 -0.225079 -0.225079
-0.0635942 -0.209772 -0.209772
-0.0905127 -0.218599 -0.218599
-0.0789165 -0.22564 -0.22564
-0.0647022 -0.217361 -0.217361
-0.0762696 -0.210339 -0.210339
-0.0775946 -0.217925 -0.217925
-0.092051 -0.22631 -0.22631
-0.0951164 -0.242115 -0.242115
-0.0680117 -0.240897 -0.240897
-0.0658078 -0.225079 -0.225079
-0.0935855 -0.234149 -0.234149
-0.0815511 -0.241451 -0.241451
-0.0669109 -0.232924 -0.232924
-0.0789165 -0.22564 -0.22564
-0.0802353 -0.233482 -0.233482
-0.0951164 -0.242115 -0.242115
-0.0981671 -0.258428 -0.258428
-0.070206 -0.257223 -0.257223
-0.0680117 -0.240897 -0.240897
-0.0966436 -0.250208 -0.250208
-0.0841736 -0.257771 -0.257771
-0.06911 -0.248996 -0.248996
-0.0815511 -0.241451 -0.241451
-0.0828639 -0.249548 -0.249548
-0.0981671 -0.258428 -0.258428
-0.101203 -0.275246 -0.275246
-0.0723908 -0.274054 -0.274054
-0.070206 -0.257223 -0.257223
-0.099687 -0.266774 -0.266774
-0.086784 -0.274596 -0.274596
-0.0712996 -0.265575 -0.265575
-0.0841736 -0.257771 -0.257771
-0.0854803 -0.266121 -0.266121
-0.101203 -0.275246 -0.275246
-0.104225 -0.292566 -0.292566
-0.0745662 -0.291388 -0.291388
-0.0723908 -0.274054 -0.274054
-0.102716 -0.283843 -0.283843
-0.0893825 -0.291923 -0.291923
-0.0734797 -0.282658 -0.282658
-0.086784 -0.274596 -0.274596
-0.0880848 -0.283197 -0.283197
-0.104225 -0.292566 -0.292566
-0.107232 -0.310385 -0.310385
-0.0767322 -0.30922 -0.30922
-0.0745662 -0.291388 -0.291388
-0.10573 -0.301413 -0.301413
-0.0919691 -0.30975 -0.30975
-0.0756504 -0.300242 -0.300242
-0.0893825 -0.291923 -0.291923
-0.0906773 -0.300774 -0.300774
-0.107232 -0.310385 -0.310385
-0.110224 -0.3287 -0.3287
-0.078889 -0.327549 -0.327549
-0.0767322 -0.30922 -0.30922
-0.10873 -0.319481 -0.319481
-0.0945438 -0.328072 -0.328072
-0.0778118 -0.318323 -0.318323
-0.0919691 -0.30975 -0.30975
-0.0932579 -0.318849 -0.318849
-0.110224 -0.3287 -0.3287
-0.113203 -0.347508 -0.347508
-0.0810366 -0.346371 -0.346371
-0.078889 -0.327549 -0.327549
-0.111715 -0.338043 -0.338043
-0.0971067 -0.346887 -0.346887
-0.0799639 -0.336899 -0.336899
-0.0945438 -0.328072 -0.328072
-0.0958267 -0.337418 -0.337418
-0.113203 -0.347508 -0.347508
-0.116167 -0.366806 -0.366806
-0.0831751 -0.365683 -0.365683
-0.0810366 -0.346371 -0.346371
-0.114687 -0.357096 -0.357096
-0.099658 -0.366192 -0.366192
-0.082107 -0.355966 -0.355966
-0.0971067 -0.346887 -0.346887
-0.0983839 -0.356479 -0.356479
-0.116167 -0.366806 -0.366806
-0.119117 -0.386591 -0.386591
-0.0853045 -0.385482 -0.385482
-0.0831751 -0.365683 -0.365683
-0.117644 -0.376638 -0.376638
-0.102198 -0.385985 -0.385985
-0.0842409 -0.375522 -0.375522
-0.099658 -0.366192 -0.366192
-0.100929 -0.376028 -0.376028
-0.119117 -0.386591 -0.386591
-0.122053 -0.40686 -0.40686
-0.0874249 -0.405765 -0.405765
-0.0853045 -0.385482 -0.385482
-0.120587 -0.396665 -0.396665
-0.104726 -0.406261 -0.406261
-0.0863658 -0.395563 -0.395563
-0.102198 -0.385985 -0.385985
-0.103463 -0.396062 -0.396062
-0.122053 -0.40686 -0.40686
-0.124975 -0.427609 -0.427609
-0.0895364 -0.426529 -0.426529
-0.0874249 -0.405765 -0.405765
-0.123516 -0.417175 -0.417175
-0.107243 -0.427018 -0.427018
-0.0884818 -0.416087 -0.416087
-0.104726 -0.406261 -0.406261
-0.105986 -0.41658 -0.41658
-0.124975 -0.427609 -0.427609
-0.127883 -0.448837 -0.448837
-0.0916391 -0.447771 -0.447771
-0.0895364 -0.426529 -0.426529
-0.12643 -0.438164 -0.438164
-0.109748 -0.448253 -0.448253
-0.0905889 -0.437091 -0.437091
-0.107243 -0.427018 -0.427018
-0.108497 -0.437576 -0.437576
-0.127883 -0.448837 -0.448837
-0.130777 -0.470539 -0.470539
-0.093733 -0.469488 -0.469488
-0.0916391 -0.447771 -0.447771
-0.129331 -0.459629 -0.459629
-0.112242 -0.469963 -0.469963
-0.0926871 -0.458571 -0.458571
-0.109748 -0.448253 -0.448253
-0.110996 -0.459049 -0.459049
-0.130777 -0.470539 -0.470539
-0.133657 -0.492714 -0.492714
-0.0958182 -0.491677 -0.491677
-0.093733 -0.469488 -0.469488
-0.132218 -0.481568 -0.481568
-0.114724 -0.492145 -0.492145
-0.0947767 -0.480524 -0.480524
-0.112242 -0.469963 -0.469963
-0.113484 -0.480995 -0.480995
-0.133657 -0.492714 -0.492714
-0.136523 -0.515357 -0.515357
-0.0978947 -0.514335 -0.514335
-0.0958182 -0.491677 -0.491677
-0.135092 -0.503977 -0.503977
-0.117196 -0.514796 -0.514796
-0.0968575 -0.502948 -0.502948
-0.114724 -0.492145 -0.492145
-0.115962 -0.503412 -0.503412
-0.136523 -0.515357 -0.515357
-0.139376 -0.538466 -0.538466
-0.0999626 -0.537459 -0.537459
-0.0978947 -0.514335 -0.514335
-0.137951 -0.526853 -0.526853
-0.119656 -0.537913 -0.537913
-0.0989297 -0.525839 -0.525839
-0.117196 -0.514796 -0.514796
-0.118427 -0.526296 -0.526296
-0.139376 -0.538466 -0.538466
-0.142215 -0.562037 -0.562037
-0.102022 -0.561046 -0.561046
-0.0999626 -0.537459 -0.537459
-0.140797 -0.550194 -0.550194
-0.122105 -0.561492 -0.561492
-0.100993 -0.549195 -0.549195
-0.119656 -0.537913 -0.537913
-0.120882 -0.549645 -0.549645
-0.142215 -0.562037 -0.562037
-0.14504 -0.586069 -0.586069
-0.104073 -0.585092 -0.585092
-0.102022 -0.561046 -0.561046
-0.143629 -0.573996 -0.573996
-0.124543 -0.585532 -0.585532
-0.103048 -0.573012 -0.573012
-0.122105 -0.561492 -0.561492
-0.123326 -0.573455 -0.573455
-0.14504 -0.586069 -0.586069
-0.147852 -0.610557 -0.610557
-0.106115 -0.609596 -0.609596
-0.104073 -0.585092 -0.585092
-0.146448 -0.598256 -0.598256
-0.126971 -0.610028 -0.610028
-0.105095 -0.597287 -0.597287
-0.124543 -0.585532 -0.585532
-0.125758 -0.597723 -0.597723
-0.147852 -0.610557 -0.610557
-0.15065 -0.635499 -0.635499
-0.108149 -0.634553 -0.634553
-0.106115 -0.609596 -0.609596
-0.149253 -0.622972 -0.622972
-0.129387 -0.634978 -0.634978
-0.107133 -0.622018 -0.622018
-0.126971 -0.610028 -0.610028
-0.12818 -0.622446 -0.622446
-0.15065 -0.635499 -0.635499
-0.153435 -0.660892 -0.660892
-0.110175 -0.659961 -0.659961
-0.108149 -0.634553 -0.634553
-0.152044 -0.648139 -0.648139
-0.131792 -0.660379 -0.660379
-0.109163 -0.647201 -0.647201
-0.129387 -0.634978 -0.634978
-0.130591 -0.647622 -0.647622
-0.153435 -0.660892 -0.660892
-0.156207 -0.686732 -0.686732
-0.112193 -0.685817 -0.685817
-0.110175 -0.659961 -0.659961
-0.154823 -0.673756 -0.673756
-0.134187 -0.686227 -0.686227
-0.111185 -0.672833 -0.672833
-0.131792 -0.660379 -0.660379
-0.132991 -0.673247 -0.673247
-0.156207 -0.686732 -0.686732
-0.158965 -0.713018 -0.713018
-0.114202 -0.712118 -0.712118
-0.112193 -0.685817 -0.685817
-0.157587 -0.69982 -0.69982
-0.13657 -0.71252 -0.71252
-0.113198 -0.698912 -0.698912
-0.134187 -0.686227 -0.686227
-0.13538 -0.699318 -0.699318
-0.158965 -0.713018 -0.713018
-0.16171 -0.739744 -0.739744
-0.116203 -0.73886 -0.73886
-0.114202 -0.712118 -0.712118
-0.160339 -0.726326 -0.726326
-0.138943 -0.739255 -0.739255
-0.115203 -0.725434 -0.725434
-0.13657 -0.71252 -0.71252
-0.137758 -0.725833 -0.725833
-0.16171 -0.739744 -0.739744
-0.164441 -0.76691 -0.76691
-0.118196 -0.766041 -0.766041
-0.116203 -0.73886 -0.73886
-0.163077 -0.753272 -0.753272
-0.141305 -0.766429 -0.766429
-0.1172 -0.752396 -0.752396
-0.138943 -0.739255 -0.739255
-0.140126 -0.752788 -0.752788
-0.164441 -0.76691 -0.76691
-0.16716 -0.794511 -0.794511
-0.120181 -0.793658 -0.793658
-0.118196 -0.766041 -0.766041
-0.165802 -0.780656 -0.780656
-0.143657 -0.794038 -0.794038
-0.119189 -0.779795 -0.779795
-0.141305 -0.766429 -0.766429
-0.142483 -0.780179 -0.780179
-0.16716 -0.794511 -0.794511
-0.169865 -0.822545 -0.822545
-0.122157 -0.821708 -0.821708
-0.120181 -0.793658 -0.793658
-0.168514 -0.808474 -0.808474
-0.145998 -0.82208 -0.82208
-0.12117 -0.807629 -0.807629
-0.143657 -0.794038 -0.794038
-0.144829 -0.808005 -0.808005
-0.169865 -0.822545 -0.822545
-0.172557 -0.851008 -0.851008
-0.124126 -0.850187 -0.850187
-0.122157 -0.821708 -0.821708
-0.171213 -0.836723 -0.836723
-0.148328 -0.850552 -0.850552
-0.123143 -0.835894 -0.835894
-0.145998 -0.82208 -0.82208
-0.147165 -0.836262 -0.836262
-0.172557 -0.851008 -0.851008
-0.175236 -0.879898 -0.879898
-0.126087 -0.879093 -0.879093
-0.124126 -0.850187 -0.850187
-0.173898 -0.8654 -0.8654
-0.150648 -0.87945 -0.87945
-0.125108 -0.864586 -0.864586
-0.148328 -0.850552 -0.850552
-0.14949 -0.864948 -0.864948
-0.175236 -0.879898 -0.879898
-0.177902 -0.909211 -0.909211
-0.12804 -0.908422 -0.908422
-0.126087 -0.879093 -0.879093
-0.176571 -0.894502 -0.894502
-0.152958 -0.908772 -0.908772
-0.127064 -0.893704 -0.893704
-0.150648 -0.87945 -0.87945
-0.151804 -0.894058 -0.894058
-0.177902 -0.909211 -0.909211
-0.180555 -0.938945 -0.938945
-0.129985 -0.938172 -0.938172
-0.12804 -0.908422 -0.908422
-0.17923 -0.924026 -0.924026
-0.155257 -0.938514 -0.938514
-0.129013 -0.923245 -0.923245
-0.152958 -0.908772 -0.908772
-0.154109 -0.92359 -0.92359
-0.180555 -0.938945 -0.938945
-0.183195 -0.969096 -0.969096
-0.131922 -0.968339 -0.968339
-0.129985 -0.938172 -0.938172
-0.181876 -0.953969 -0.953969
-0.157545 -0.968674 -0.968674
-0.130954 -0.953204 -0.953204
-0.155257 -0.938514 -0.938514
-0.156402 -0.953542 -0.953542
-0.183195 -0.969096 -0.969096
-0.185822 -0.999662 -0.999662
-0.133851 -0.998922 -0.998922
-0.131922 -0.968339 -0.968339
-0.18451 -0.984328 -0.984328
-0.159823 -0.999248 -0.999248
-0.132887 -0.983579 -0.983579
-0.157545 -0.968674 -0.968674
-0.158686 -0.983909 -0.983909
-0.185822 -0.999662 -0.999662
-0.188436 -1.03064 -1.03064
-0.135773 -1.02992 -1.02992
-0.133851 -0.998922 -0.998922
-0.18713 -1.0151 -1.0151
-0.162091 -1.03023 -1.03023
-0.134813 -1.01437 -1.01437
-0.159823 -0.999248 -0.999248
-0.160958 -1.01469 -1.01469
-0.188436 -1.03064 -1.03064
-0.191037 -1.06203 -1.06203
-0.137686 -1.06132 -1.06132
-0.135773 -1.02992 -1.02992
-0.189738 -1.04628 -1.04628
-0.164348 -1.06163 -1.06163
-0.13673 -1.04557 -1.04557
-0.162091 -1.03023 -1.03023
-0.163221 -1.04588 -1.04588
-0.191037 -1.06203 -1.06203
-0.193625 -1.09382 -1.09382
-0.139592 -1.09312 -1.09312
-0.137686 -1.06132 -1.06132
-0.192333 -1.07787 -1.07787
-0.166596 -1.09343 -1.09343
-0.13864 -1.07717 -1.07717
-0.164348 -1.06163 -1.06163
-0.165473 -1.07748 -1.07748
-0.193625 -1.09382 -1.09382
-0.196201 -1.12601 -1.12601
-0.14149 -1.12533 -1.12533
-0.139592 -1.09312 -1.09312
-0.194915 -1.10986 -1.10986
-0.168832 -1.12563 -1.12563
-0.140542 -1.10918 -1.10918
-0.166596 -1.09343 -1.09343
-0.167715 -1.10948 -1.10948
-0.196201 -1.12601 -1.12601
-0.198763 -1.1586 -1.1586
-0.143381 -1.15794 -1.15794
-0.14149 -1.12533 -1.12533
-0.197484 -1.14226 -1.14226
-0.171059 -1.15823 -1.15823
-0.142436 -1.14159 -1.14159
-0.168832 -1.12563 -1.12563
-0.169947 -1.14188 -1.14188
-0.198763 -1.1586 -1.1586
-0.201313 -1.19159 -1.19159
-0.145264 -1.19095 -1.19095
-0.143381 -1.15794 -1.15794
-0.20004 -1.17505 -1.17505
-0.173275 -1.19123 -1.19123
-0.144323 -1.1744 -1.1744
-0.171059 -1.15823 -1.15823
-0.172168 -1.17468 -1.17468
-0.201313 -1.19159 -1.19159
-0.20385 -1.22498 -1.22498
-0.147139 -1.22435 -1.22435
-0.145264 -1.19095 -1.19095
-0.202583 -1.20824 -1.20824
-0.175481 -1.22462 -1.22462
-0.146202 -1.2076 -1.2076
-0.173275 -1.19123 -1.19123
-0.17438 -1.20788 -1.20788
-0.20385 -1.22498 -1.22498
-0.206375 -1.25875 -1.25875
-0.149006 -1.25814 -1.25814
-0.147139 -1.22435 -1.22435
-0.205114 -1.24181 -1.24181
-0.177677 -1.2584 -1.2584
-0.148073 -1.2412 -1.2412
-0.175481 -1.22462 -1.22462
-0.176581 -1.24146 -1.24146
-0.206375 -1.25875 -1.25875
-0.208886 -1.29291 -1.29291
-0.150866 -1.29232 -1.29232
-0.149006 -1.25814 -1.25814
-0.207632 -1.27578 -1.27578
-0.179863 -1.29257 -1.29257
-0.149937 -1.27518 -1.27518
-0.177677 -1.2584 -1.2584
-0.178771 -1.27544 -1.27544
-0.208886 -1.29291 -1.29291
-0.211385 -1.32745 -1.32745
-0.152719 -1.32688 -1.32688
-0.150866 -1.29232 -1.29232
-0.210137 -1.31013 -1.31013
-0.182039 -1.32713 -1.32713
-0.151793 -1.30955 -1.30955
-0.179863 -1.29257 -1.29257
-0.180952 -1.3098 -1.3098
-0.211385 -1.32745 -1.32745
-0.213871 -1.36238 -1.36238
-0.154563 -1.36182 -1.36182
-0.152719 -1.32688 -1.32688
-0.21263 -1.34487 -1.34487
-0.184204 -1.36206 -1.36206
-0.153642 -1.3443 -1.3443
-0.182039 -1.32713 -1.32713
-0.183123 -1.34455 -1.34455
-0.213871 -1.36238 -1.36238
-0.216345 -1.39768 -1.39768
-0.1564 -1.39714 -1.39714
-0.154563 -1.36182 -1.36182
-0.21511 -1.37999 -1.37999