<?xml version="1.0"?>
<VTKFile type="UnstructuredGrid">
  <UnstructuredGrid>
  <Piece NumberOfPoints="12411"  NumberOfCells="1379">
    <Points>
      <DataArray type="Float64" NumberOfComponents="3" format="ascii">
0 0 0
2.53345 -0.00230222 0
2.53532 4.28494 0
0 4.28571 0
1.26652 -0.00143539 0
2.53459 2.14147 0
1.2677 4.28544 0
0 2.14286 0
1.26738 2.14224 0
2.53345 -0.00230222 0
5.06753 -0.00399779 0
5.07041 4.28347 0
2.53532 4.28494 0
3.80049 -0.00311797 0
5.06904 2.13982 0
3.80288 4.28427 0
2.53459 2.14147 0
3.80181 2.14067 0
5.06753 -0.00399779 0
7.60157 -0.00604348 0
7.60547 4.28145 0
5.07041 4.28347 0
6.33456 -0.00496068 0
7.60354 2.13777 0
6.33794 4.28253 0
5.06904 2.13982 0
6.33629 2.13886 0
7.60157 -0.00604348 0
10.1356 -0.0086762 0
10.1406 4.27882 0
7.60547 4.28145 0
8.86858 -0.00728027 0
10.1381 2.13514 0
8.87301 4.28022 0
7.60354 2.13777 0
8.87081 2.13654 0
10.1356 -0.0086762 0
12.6696 -0.0119503 0
12.6757 4.27554 0
10.1406 4.27882 0
11.4026 -0.0102308 0
12.6726 2.13187 0
11.4081 4.27727 0
10.1381 2.13514 0
11.4053 2.13359 0
12.6696 -0.0119503 0
15.2036 -0.0159025 0
15.2108 4.27158 0
12.6757 4.27554 0
13.9366 -0.0138407 0
15.2072 2.12791 0
13.9432 4.27365 0
12.6726 2.13187 0
13.9399 2.12997 0
15.2036 -0.0159025 0
17.7375 -0.0205378 0
17.7459 4.26694 0
15.2108 4.27158 0
16.4705 -0.0181345 0
17.7417 2.12327 0
16.4783 4.26935 0
15.2072 2.12791 0
16.4745 2.12568 0
17.7375 -0.0205378 0
20.2715 -0.0258608 0
20.2811 4.2616 0
17.7459 4.26694 0
19.0045 -0.0231134 0
20.2763 2.11794 0
19.0135 4.26436 0
17.7417 2.12327 0
19.009 2.12069 0
20.2715 -0.0258608 0
22.8056 -0.0318687 0
22.8162 4.25558 0
20.2811 4.2616 0
21.5385 -0.0287793 0
22.8109 2.11193 0
21.5487 4.25868 0
20.2763 2.11794 0
21.5436 2.11502 0
22.8056 -0.0318687 0
25.3396 -0.0385591 0
25.3514 4.24888 0
22.8162 4.25558 0
24.0726 -0.0351288 0
25.3455 2.10523 0
24.0838 4.25232 0
22.8109 2.11193 0
24.0782 2.10867 0
25.3396 -0.0385591 0
27.8736 -0.0459283 0
27.8866 4.2415 0
25.3514 4.24888 0
26.6066 -0.0421591 0
27.8802 2.09786 0
26.619 4.24527 0
25.3455 2.10523 0
26.6128 2.10163 0
27.8736 -0.0459283 0
30.4077 -0.0539725 0
30.4218 4.23344 0
27.8866 4.2415 0
29.1407 -0.0498662 0
30.4148 2.08981 0
29.1542 4.23755 0
27.8802 2.09786 0
29.1475 2.09392 0
30.4077 -0.0539725 0
32.9418 -0.0626879 0
32.9571 4.22471 0
30.4218 4.23344 0
31.6748 -0.0582465 0
32.9495 2.08108 0
31.6894 4.22916 0
30.4148 2.08981 0
31.6821 2.08553 0
32.9418 -0.0626879 0
35.4759 -0.072071 0
35.4923 4.21532 0
32.9571 4.22471 0
34.2089 -0.0672963 0
35.4841 2.07169 0
34.2247 4.2201 0
32.9495 2.08108 0
34.2168 2.07647 0
35.4759 -0.072071 0
38.0101 -0.0821179 0
38.0276 4.20526 0
35.4923 4.21532 0
36.743 -0.0770117 0
38.0188 2.06164 0
36.7599 4.21037 0
35.4841 2.07169 0
36.7515 2.06675 0
38.0101 -0.0821179 0
40.5442 -0.0928251 0
40.5628 4.19453 0
38.0276 4.20526 0
39.2771 -0.0873892 0
40.5535 2.05093 0
39.2952 4.19998 0
38.0188 2.06164 0
39.2862 2.05636 0
40.5442 -0.0928251 0
43.0784 -0.104189 0
43.0981 4.18316 0
40.5628 4.19453 0
41.8113 -0.0984251 0
43.0882 2.03955 0
41.8304 4.18893 0
40.5535 2.05093 0
41.8209 2.04532 0
43.0784 -0.104189 0
45.6126 -0.116205 0
45.6334 4.17113 0
43.0981 4.18316 0
44.3455 -0.110116 0
45.623 2.02753 0
44.3657 4.17722 0
43.0882 2.03955 0
44.3556 2.03362 0
45.6126 -0.116205 0
48.1468 -0.128871 0
48.1687 4.15844 0
45.6334 4.17113 0
46.8797 -0.122457 0
48.1577 2.01486 0
46.901 4.16487 0
45.623 2.02753 0
46.8904 2.02127 0
48.1468 -0.128871 0
50.681 -0.142183 0
50.704 4.14512 0
48.1687 4.15844 0
49.4139 -0.135447 0
50.6925 2.00154 0
49.4363 4.15186 0
48.1577 2.01486 0
49.4251 2.00828 0
50.681 -0.142183 0
53.2152 -0.156137 0
53.2393 4.13115 0
50.704 4.14512 0
51.9481 -0.14908 0
53.2273 1.98757 0
51.9716 4.13821 0
50.6925 2.00154 0
51.9599 1.99464 0
53.2152 -0.156137 0
55.7495 -0.170729 0
55.7746 4.11654 0
53.2393 4.13115 0
54.4824 -0.163353 0
55.7621 1.97297 0
54.507 4.12393 0
53.2273 1.98757 0
54.4947 1.98035 0
55.7495 -0.170729 0
58.2838 -0.185956 0
58.31 4.1013 0
55.7746 4.11654 0
57.0166 -0.178263 0
58.2969 1.95774 0
57.0423 4.109 0
55.7621 1.97297 0
57.0295 1.96544 0
58.2838 -0.185956 0
60.8181 -0.201814 0
60.8454 4.08542 0
58.31 4.1013 0
59.5509 -0.193806 0
60.8317 1.94187 0
59.5777 4.09344 0
58.2969 1.95774 0
59.5643 1.94988 0
60.8181 -0.201814 0
63.3524 -0.2183 0
63.3807 4.06892 0
60.8454 4.08542 0
62.0852 -0.209979 0
63.3666 1.92538 0
62.113 4.07725 0
60.8317 1.94187 0
62.0991 1.9337 0
63.3524 -0.2183 0
65.8867 -0.23541 0
65.9161 4.0518 0
63.3807 4.06892 0
64.6195 -0.226777 0
65.9014 1.90826 0
64.6484 4.06044 0
63.3666 1.92538 0
64.634 1.9169 0
65.8867 -0.23541 0
68.421 -0.25314 0
68.4515 4.03405 0
65.9161 4.0518 0
67.1539 -0.244198 0
68.4363 1.89052 0
67.1838 4.043 0
65.9014 1.90826 0
67.1689 1.89947 0
68.421 -0.25314 0
70.9554 -0.271487 0
70.9869 4.01569 0
68.4515 4.03405 0
69.6882 -0.262237 0
70.9712 1.87217 0
69.7192 4.02494 0
68.4363 1.89052 0
69.7037 1.88142 0
70.9554 -0.271487 0
73.4898 -0.290447 0
73.5223 3.99671 0
70.9869 4.01569 0
72.2226 -0.280891 0
73.5061 1.8532 0
72.2546 4.00627 0
70.9712 1.87217 0
72.2386 1.86276 0
73.4898 -0.290447 0
76.0242 -0.310017 0
76.0577 3.97712 0
73.5223 3.99671 0
74.757 -0.300156 0
76.041 1.83362 0
74.79 3.98699 0
73.5061 1.8532 0
74.7735 1.84348 0
76.0242 -0.310017 0
78.5586 -0.330192 0
78.5932 3.95693 0
76.0577 3.97712 0
77.2914 -0.320029 0
78.5759 1.81343 0
77.3255 3.9671 0
76.041 1.83362 0
77.3084 1.8236 0
78.5586 -0.330192 0
81.093 -0.35097 0
81.1286 3.93613 0
78.5932 3.95693 0
79.8258 -0.340506 0
81.1108 1.79265 0
79.8609 3.94661 0
78.5759 1.81343 0
79.8434 1.80311 0
81.093 -0.35097 0
83.6275 -0.372346 0
83.6641 3.91474 0
81.1286 3.93613 0
82.3603 -0.361584 0
83.6458 1.77126 0
82.3964 3.92551 0
81.1108 1.79265 0
82.3783 1.78203 0
83.6275 -0.372346 0
86.1619 -0.394318 0
86.1995 3.89275 0
83.6641 3.91474 0
84.8947 -0.383258 0
86.1808 1.74928 0
84.9318 3.90382 0
83.6458 1.77126 0
84.9133 1.76034 0
86.1619 -0.394318 0
88.6964 -0.416881 0
88.735 3.87017 0
86.1995 3.89275 0
87.4292 -0.405526 0
88.7157 1.72671 0
87.4673 3.88153 0
86.1808 1.74928 0
87.4482 1.73807 0
88.6964 -0.416881 0
91.2309 -0.440031 0
91.2705 3.847 0
88.735 3.87017 0
89.9637 -0.428383 0
91.2507 1.70355 0
90.0028 3.85866 0
88.7157 1.72671 0
89.9832 1.7152 0
91.2309 -0.440031 0
93.7654 -0.463766 0
93.806 3.82325 0
91.2705 3.847 0
92.4982 -0.451826 0
93.7857 1.6798 0
92.5383 3.8352 0
91.2507 1.70355 0
92.5182 1.69175 0
93.7654 -0.463766 0
96.3 -0.488082 0
96.3415 3.79891 0
93.806 3.82325 0
95.0327 -0.475852 0
96.3208 1.65548 0
95.0738 3.81115 0
93.7857 1.6798 0
95.0532 1.66771 0
96.3 -0.488082 0
98.8345 -0.512974 0
98.877 3.774 0
96.3415 3.79891 0
97.5672 -0.500456 0
98.8558 1.63057 0
97.6093 3.78653 0
96.3208 1.65548 0
97.5883 1.6431 0
98.8345 -0.512974 0
101.369 -0.53844 0
101.413 3.74852 0
98.877 3.774 0
100.102 -0.525636 0
101.391 1.6051 0
100.145 3.76133 0
98.8558 1.63057 0
100.123 1.61791 0
101.369 -0.53844 0
103.904 -0.564475 0
103.948 3.72246 0
101.413 3.74852 0
102.636 -0.551386 0
103.926 1.57905 0
102.68 3.73556 0
101.391 1.6051 0
102.658 1.59215 0
103.904 -0.564475 0
106.438 -0.591077 0
106.484 3.69584 0
103.948 3.72246 0
105.171 -0.577705 0
106.461 1.55244 0
105.216 3.70922 0
103.926 1.57905 0
105.193 1.56582 0
106.438 -0.591077 0
108.973 -0.618241 0
109.019 3.66866 0
106.484 3.69584 0
107.706 -0.604589 0
108.996 1.52527 0
107.751 3.68232 0
106.461 1.55244 0
107.728 1.53893 0
108.973 -0.618241 0
111.507 -0.645963 0
111.555 3.64092 0
109.019 3.66866 0
110.24 -0.632032 0
111.531 1.49754 0
110.287 3.65486 0
108.996 1.52527 0
110.264 1.51147 0
111.507 -0.645963 0
114.042 -0.674241 0
114.09 3.61262 0
111.555 3.64092 0
112.775 -0.660033 0
114.066 1.46925 0
112.823 3.62684 0
111.531 1.49754 0
112.799 1.48346 0
114.042 -0.674241 0
116.577 -0.703071 0
116.626 3.58377 0
114.09 3.61262 0
115.309 -0.688587 0
116.601 1.44041 0
115.358 3.59826 0
114.066 1.46925 0
115.334 1.4549 0
116.577 -0.703071 0
119.111 -0.732449 0
119.162 3.55437 0
116.626 3.58377 0
117.844 -0.717691 0
119.136 1.41102 0
117.894 3.56914 0
116.601 1.44041 0
117.869 1.42578 0
119.111 -0.732449 0
121.646 -0.76237 0
121.697 3.52443 0
119.162 3.55437 0
120.379 -0.747342 0
121.672 1.38109 0
120.429 3.53947 0
119.136 1.41102 0
120.404 1.39612 0
121.646 -0.76237 0
124.181 -0.792833 0
124.233 3.49395 0
121.697 3.52443 0
122.913 -0.777534 0
124.207 1.35061 0
122.965 3.50925 0
121.672 1.38109 0
122.939 1.36592 0
124.181 -0.792833 0
126.716 -0.823833 0
126.768 3.46293 0
124.233 3.49395 0
125.448 -0.808266 0
126.742 1.3196 0
125.501 3.4785 0
124.207 1.35061 0
125.474 1.33518 0
126.716 -0.823833 0
129.25 -0.855366 0
129.304 3.43137 0
126.768 3.46293 0
127.983 -0.839533 0
129.277 1.28806 0
128.036 3.44721 0
126.742 1.3196 0
128.01 1.3039 0
129.25 -0.855366 0
131.785 -0.887429 0
131.84 3.39929 0
129.304 3.43137 0
130.518 -0.871332 0
131.812 1.25599 0
130.572 3.4154 0
129.277 1.28806 0
130.545 1.27209 0
131.785 -0.887429 0
134.32 -0.920019 0
134.375 3.36668 0
131.84 3.39929 0
133.052 -0.903659 0
134.348 1.22339 0
133.107 3.38305 0
131.812 1.25599 0
133.08 1.23975 0
134.32 -0.920019 0
136.855 -0.953131 0
136.911 3.33354 0
134.375 3.36668 0
135.587 -0.93651 0
136.883 1.19026 0
135.643 3.35018 0
134.348 1.22339 0
135.615 1.20689 0
136.855 -0.953131 0
139.389 -0.986762 0
139.447 3.29989 0
136.911 3.33354 0
138.122 -0.969882 0
139.418 1.15662 0
138.179 3.31678 0
136.883 1.19026 0
138.15 1.17351 0
139.389 -0.986762 0
141.924 -1.02091 0
141.982 3.26573 0
139.447 3.29989 0
140.657 -1.00377 0
141.953 1.12246 0
140.714 3.28287 0
139.418 1.15662 0
140.686 1.13961 0
141.924 -1.02091 0
144.459 -1.05557 0
144.518 3.23105 0
141.982 3.26573 0
143.192 -1.03817 0
144.488 1.08779 0
143.25 3.24845 0
141.953 1.12246 0
143.221 1.10519 0
144.459 -1.05557 0
146.994 -1.09073 0
147.054 3.19586 0
144.518 3.23105 0
145.726 -1.07309 0
147.024 1.05262 0
145.786 3.21352 0
144.488 1.08779 0
145.756 1.07027 0
146.994 -1.09073 0
149.529 -1.1264 0
149.589 3.16017 0
147.054 3.19586 0
148.261 -1.10851 0
149.559 1.01693 0
[...]
    <PointData>
      <DataArray type="Float64" NumberOfComponents="3" Name="Displacement" format="ascii">
0 0 0
-0.00461642 -0.00230222 -0.00230222
-0.00275236 -0.000777558 -0.000777558
0 0 0
-0.00251202 -0.00143539 -0.00143539
-0.00347687 -0.00139132 -0.00139132
-0.00133555 -0.000278589 -0.000278589
0 0 0
-0.00165817 -0.000613312 -0.000613312
-0.00461642 -0.00230222 -0.00230222
-0.00861084 -0.00399779 -0.00399779
-0.00573266 -0.00224543 -0.00224543
-0.00275236 -0.000777558 -0.000777558
-0.00661945 -0.00311797 -0.00311797
-0.00709936 -0.00303281 -0.00303281
-0.00422833 -0.0014406 -0.0014406
-0.00347687 -0.00139132 -0.00139132
-0.00529833 -0.00218736 -0.00218736
-0.00861084 -0.00399779 -0.00399779
-0.0126407 -0.00604348 -0.00604348
-0.00873989 -0.0042624 -0.0042624
-0.00573266 -0.00224543 -0.00224543
-0.0106186 -0.00496068 -0.00496068
-0.0106689 -0.00508567 -0.00508567
-0.00723805 -0.00318291 -0.00318291
-0.00709936 -0.00303281 -0.00303281
-0.00888876 -0.00399233 -0.00399233
-0.0126407 -0.00604348 -0.00604348
-0.0167039 -0.0086762 -0.0086762
-0.0117322 -0.00688964 -0.00688964
-0.00873989 -0.0042624 -0.0042624
-0.0146693 -0.00728027 -0.00728027
-0.0142081 -0.00771259 -0.00771259
-0.0102386 -0.00549616 -0.00549616
-0.0106689 -0.00508567 -0.00508567
-0.012441 -0.00632194 -0.00632194
-0.0167039 -0.0086762 -0.0086762
-0.0207889 -0.0119503 -0.0119503
-0.0146995 -0.0101707 -0.0101707
-0.0117322 -0.00688964 -0.00688964
-0.0187448 -0.0102308 -0.0102308
-0.0177355 -0.0109908 -0.0109908
-0.0132188 -0.00844659 -0.00844659
-0.0142081 -0.00771259 -0.00771259
-0.0159729 -0.00926787 -0.00926787
-0.0207889 -0.0119503 -0.0119503
-0.0248757 -0.0159025 -0.0159025
-0.0176478 -0.0141307 -0.0141307
-0.0146995 -0.0101707 -0.0101707
-0.0228327 -0.0138407 -0.0138407
-0.0212515 -0.0149448 -0.0149448
-0.0161759 -0.0120651 -0.0120651
-0.0177355 -0.0109908 -0.0109908
-0.0194949 -0.0128825 -0.0128825
-0.0248757 -0.0159025 -0.0159025
-0.0289573 -0.0205378 -0.0205378
-0.0205784 -0.0187769 -0.0187769
-0.0176478 -0.0141307 -0.0141307
-0.0269176 -0.0181345 -0.0181345
-0.0247559 -0.0195851 -0.0195851
-0.0191152 -0.0163679 -0.0163679
-0.0212515 -0.0149448 -0.0149448
-0.0230053 -0.0171789 -0.0171789
-0.0289573 -0.0205378 -0.0205378
-0.0330263 -0.0258608 -0.0258608
-0.0234938 -0.0241109 -0.0241109
-0.0205784 -0.0187769 -0.0187769
-0.0309936 -0.0231134 -0.0231134
-0.0282467 -0.0249131 -0.0249131
-0.0220379 -0.021358 -0.021358
-0.0247559 -0.0195851 -0.0195851
-0.0265031 -0.0221632 -0.0221632
-0.0330263 -0.0258608 -0.0258608
-0.0370796 -0.0318687 -0.0318687
-0.0263945 -0.0301308 -0.0301308
-0.0234938 -0.0241109 -0.0241109
-0.035055 -0.0287793 -0.0287793
-0.0317229 -0.030927 -0.030927
-0.0249459 -0.0270353 -0.0270353
-0.0282467 -0.0249131 -0.0249131
-0.0299867 -0.0278345 -0.0278345
-0.0370796 -0.0318687 -0.0318687
-0.0411152 -0.0385591 -0.0385591
-0.0292813 -0.0368335 -0.0368335
-0.0263945 -0.0301308 -0.0301308
-0.0390997 -0.0351288 -0.0351288
-0.0351835 -0.0376237 -0.0376237
-0.0278396 -0.033397 -0.033397
-0.0317229 -0.030927 -0.030927
-0.0334552 -0.0341903 -0.0341903
-0.0411152 -0.0385591 -0.0385591
-0.0451321 -0.0459283 -0.0459283
-0.0321545 -0.0442153 -0.0442153
-0.0292813 -0.0368335 -0.0368335
-0.043126 -0.0421591 -0.0421591
-0.0386283 -0.0449995 -0.0449995
-0.0307196 -0.0404397 -0.0404397
-0.0351835 -0.0376237 -0.0376237
-0.0369079 -0.041227 -0.041227
-0.0451321 -0.0459283 -0.0459283
-0.04913 -0.0539725 -0.0539725
-0.0350143 -0.0522724 -0.0522724
-0.0321545 -0.0442153 -0.0442153
-0.0471335 -0.0498662 -0.0498662
-0.042057 -0.0530505 -0.0530505
-0.033586 -0.0481597 -0.0481597
-0.0386283 -0.0449995 -0.0449995
-0.0403446 -0.0489408 -0.0489408
-0.04913 -0.0539725 -0.0539725
-0.0531088 -0.0626879 -0.0626879
-0.0378609 -0.0610011 -0.0610011
-0.0350143 -0.0522724 -0.0522724
-0.0511218 -0.0582465 -0.0582465
-0.0454696 -0.0617729 -0.0617729
-0.0364393 -0.0565531 -0.0565531
-0.042057 -0.0530505 -0.0530505
-0.0437653 -0.057328 -0.057328
-0.0531088 -0.0626879 -0.0626879
-0.0570684 -0.072071 -0.072071
-0.0406946 -0.0703977 -0.0703977
-0.0378609 -0.0610011 -0.0610011
-0.055091 -0.0672963 -0.0672963
-0.0488662 -0.0711631 -0.0711631
-0.0392794 -0.0656161 -0.0656161
-0.0454696 -0.0617729 -0.0617729
-0.0471698 -0.0663848 -0.0663848
-0.0570684 -0.072071 -0.072071
-0.0610091 -0.0821179 -0.0821179
-0.0435154 -0.0804583 -0.0804583
-0.0406946 -0.0703977 -0.0703977
-0.0590411 -0.0770117 -0.0770117
-0.0522469 -0.0812173 -0.0812173
-0.0421066 -0.0753452 -0.0753452
-0.0488662 -0.0711631 -0.0711631
-0.0505585 -0.0761074 -0.0761074
-0.0610091 -0.0821179 -0.0821179
-0.0649309 -0.0928251 -0.0928251
-0.0463236 -0.0911795 -0.0911795
-0.0435154 -0.0804583 -0.0804583
-0.0629723 -0.0873892 -0.0873892
-0.0556119 -0.0919318 -0.0919318
-0.0449211 -0.0857366 -0.0857366
-0.0522469 -0.0812173 -0.0812173
-0.0539313 -0.0864923 -0.0864923
-0.0649309 -0.0928251 -0.0928251
-0.0688341 -0.104189 -0.104189
-0.0491193 -0.102557 -0.102557
-0.0463236 -0.0911795 -0.0911795
-0.0668848 -0.0984251 -0.0984251
-0.0589613 -0.103303 -0.103303
-0.047723 -0.0967866 -0.0967866
-0.0556119 -0.0919318 -0.0919318
-0.0572885 -0.0975356 -0.0975356
-0.0688341 -0.104189 -0.104189
-0.0727187 -0.116205 -0.116205
-0.0519026 -0.114589 -0.114589
-0.0491193 -0.102557 -0.102557
-0.0707787 -0.110116 -0.110116
-0.0622952 -0.115327 -0.115327
-0.0505124 -0.108492 -0.108492
-0.0589613 -0.103303 -0.103303
-0.0606302 -0.109234 -0.109234
-0.0727187 -0.116205 -0.116205
-0.076585 -0.128871 -0.128871
-0.0546736 -0.127269 -0.127269
-0.0519026 -0.114589 -0.114589
-0.0746542 -0.122457 -0.122457
-0.0656139 -0.128001 -0.128001
-0.0532896 -0.120848 -0.120848
-0.0622952 -0.115327 -0.115327
-0.0639564 -0.121583 -0.121583
-0.076585 -0.128871 -0.128871
-0.0804331 -0.142183 -0.142183
-0.0574327 -0.140596 -0.140596
-0.0546736 -0.127269 -0.127269
-0.0785113 -0.135447 -0.135447
-0.0689174 -0.141321 -0.141321
-0.0560546 -0.133852 -0.133852
-0.0656139 -0.128001 -0.128001
-0.0672675 -0.13458 -0.13458
-0.0804331 -0.142183 -0.142183
-0.0842631 -0.156137 -0.156137
-0.0601798 -0.154565 -0.154565
-0.0574327 -0.140596 -0.140596
-0.0823504 -0.14908 -0.14908
-0.072206 -0.155282 -0.155282
-0.0588077 -0.1475 -0.1475
-0.0689174 -0.141321 -0.141321
-0.0705636 -0.148221 -0.148221
-0.0842631 -0.156137 -0.156137
-0.0880752 -0.170729 -0.170729
-0.0629151 -0.169173 -0.169173
-0.0601798 -0.154565 -0.154565
-0.0861714 -0.163353 -0.163353
-0.0754797 -0.169883 -0.169883
-0.0615489 -0.161789 -0.161789
-0.072206 -0.155282 -0.155282
-0.0738447 -0.162503 -0.162503
-0.0880752 -0.170729 -0.170729
-0.0918696 -0.185956 -0.185956
-0.0656388 -0.184415 -0.184415
-0.0629151 -0.169173 -0.169173
-0.0899746 -0.178263 -0.178263
-0.0787387 -0.185118 -0.185118
-0.0642784 -0.176715 -0.176715
-0.0754797 -0.169883 -0.169883
-0.077111 -0.177421 -0.177421
-0.0918696 -0.185956 -0.185956
-0.0956462 -0.201814 -0.201814
-0.068351 -0.20029 -0.20029
-0.0656388 -0.184415 -0.184415
-0.0937601 -0.193806 -0.193806
-0.0819831 -0.200985 -0.200985
-0.0669963 -0.192274 -0.192274
-0.0787387 -0.185118 -0.185118
-0.0803627 -0.192973 -0.192973
-0.0956462 -0.201814 -0.201814
-0.0994054 -0.2183 -0.2183
-0.0710518 -0.216792 -0.216792
-0.068351 -0.20029 -0.20029
-0.097528 -0.209979 -0.209979
-0.0852131 -0.217479 -0.217479
-0.0697028 -0.208462 -0.208462
-0.0819831 -0.200985 -0.200985
-0.0835999 -0.209154 -0.209154
-0.0994054 -0.2183 -0.2183
-0.103147 -0.23541 -0.23541
-0.0737414 -0.233918 -0.233918
-0.0710518 -0.216792 -0.216792
-0.101278 -0.226777 -0.226777
-0.0884287 -0.234597 -0.234597
-0.072398 -0.225277 -0.225277
-0.0852131 -0.217479 -0.217479
-0.0868227 -0.22596 -0.22596
-0.103147 -0.23541 -0.23541
-0.106872 -0.25314 -0.25314
-0.0764198 -0.251665 -0.251665
-0.0737414 -0.233918 -0.233918
-0.105012 -0.244198 -0.244198
-0.0916302 -0.252336 -0.252336
-0.075082 -0.242714 -0.242714
-0.0884287 -0.234597 -0.234597
-0.0900312 -0.24339 -0.24339
-0.106872 -0.25314 -0.25314
-0.110579 -0.271487 -0.271487
-0.0790873 -0.270029 -0.270029
-0.0764198 -0.251665 -0.251665
-0.108728 -0.262237 -0.262237
-0.0948177 -0.270692 -0.270692
-0.077755 -0.26077 -0.26077
-0.0916302 -0.252336 -0.252336
-0.0932257 -0.261437 -0.261437
-0.110579 -0.271487 -0.271487
-0.11427 -0.290447 -0.290447
-0.081744 -0.289006 -0.289006
-0.0790873 -0.270029 -0.270029
-0.112426 -0.280891 -0.280891
-0.0979912 -0.289661 -0.289661
-0.080417 -0.279441 -0.279441
-0.0948177 -0.270692 -0.270692
-0.0964062 -0.2801 -0.2801
-0.11427 -0.290447 -0.290447
-0.117943 -0.310017 -0.310017
-0.0843899 -0.308593 -0.308593
-0.081744 -0.289006 -0.289006
-0.116108 -0.300156 -0.300156
-0.101151 -0.30924 -0.30924
-0.0830683 -0.298723 -0.298723
-0.0979912 -0.289661 -0.289661
-0.0995728 -0.299374 -0.299374
-0.117943 -0.310017 -0.310017
-0.1216 -0.330192 -0.330192
-0.0870252 -0.328785 -0.328785
-0.0843899 -0.308593 -0.308593
-0.119774 -0.320029 -0.320029
-0.104297 -0.329424 -0.329424
-0.0857089 -0.318613 -0.318613
-0.101151 -0.30924 -0.30924
-0.102726 -0.319257 -0.319257
-0.1216 -0.330192 -0.330192
-0.12524 -0.35097 -0.35097
-0.08965 -0.349581 -0.349581
-0.0870252 -0.328785 -0.328785
-0.123422 -0.340506 -0.340506
-0.107429 -0.350211 -0.350211
-0.0883389 -0.339108 -0.339108
-0.104297 -0.329424 -0.329424
-0.105865 -0.339743 -0.339743
-0.12524 -0.35097 -0.35097
-0.128864 -0.372346 -0.372346
-0.0922643 -0.370975 -0.370975
-0.08965 -0.349581 -0.349581
-0.127054 -0.361584 -0.361584
-0.110548 -0.371597 -0.371597
-0.0909584 -0.360203 -0.360203
-0.107429 -0.350211 -0.350211
-0.108991 -0.36083 -0.36083
-0.128864 -0.372346 -0.372346
-0.132471 -0.394318 -0.394318
-0.0948685 -0.392965 -0.392965
-0.0922643 -0.370975 -0.370975
-0.130669 -0.383258 -0.383258
-0.113654 -0.393578 -0.393578
-0.0935677 -0.381896 -0.381896
-0.110548 -0.371597 -0.371597
-0.112103 -0.382513 -0.382513
-0.132471 -0.394318 -0.394318
-0.136062 -0.416881 -0.416881
-0.0974624 -0.415546 -0.415546
-0.0948685 -0.392965 -0.392965
-0.134268 -0.405526 -0.405526
-0.116746 -0.41615 -0.41615
-0.0961667 -0.404181 -0.404181
-0.113654 -0.393578 -0.393578
-0.115202 -0.40479 -0.40479
-0.136062 -0.416881 -0.416881
-0.139636 -0.440031 -0.440031
-0.100046 -0.438715 -0.438715
-0.0974624 -0.415546 -0.415546
-0.137851 -0.428383 -0.428383
-0.119826 -0.439311 -0.439311
-0.0987556 -0.427057 -0.427057
-0.116746 -0.41615 -0.41615
-0.118288 -0.427657 -0.427657
-0.139636 -0.440031 -0.440031
-0.143195 -0.463766 -0.463766
-0.10262 -0.462468 -0.462468
-0.100046 -0.438715 -0.438715
-0.141418 -0.451826 -0.451826
-0.122892 -0.463055 -0.463055
-0.101334 -0.450519 -0.450519
-0.119826 -0.439311 -0.439311
-0.12136 -0.45111 -0.45111
-0.143195 -0.463766 -0.463766
-0.146737 -0.488082 -0.488082
-0.105184 -0.486802 -0.486802
-0.10262 -0.462468 -0.462468
-0.144968 -0.475852 -0.475852
-0.125945 -0.48738 -0.48738
-0.103903 -0.474563 -0.474563
-0.122892 -0.463055 -0.463055
-0.12442 -0.475145 -0.475145
-0.146737 -0.488082 -0.488082
-0.150264 -0.512974 -0.512974
-0.107738 -0.511713 -0.511713
-0.105184 -0.486802 -0.486802
-0.148503 -0.500456 -0.500456
-0.128985 -0.512282 -0.512282
-0.106463 -0.499186 -0.499186
-0.125945 -0.48738 -0.48738
-0.127467 -0.499759 -0.499759
-0.150264 -0.512974 -0.512974
-0.153775 -0.53844 -0.53844
-0.110283 -0.537198 -0.537198
-0.107738 -0.511713 -0.511713
-0.152021 -0.525636 -0.525636
-0.132013 -0.537758 -0.537758
-0.109012 -0.524384 -0.524384
-0.128985 -0.512282 -0.512282
-0.130501 -0.524949 -0.524949
-0.153775 -0.53844 -0.53844
-0.15727 -0.564475 -0.564475
-0.112818 -0.563253 -0.563253
-0.110283 -0.537198 -0.537198
-0.155524 -0.551386 -0.551386
-0.135028 -0.563803 -0.563803
-0.111552 -0.550154 -0.550154
-0.132013 -0.537758 -0.537758
-0.133522 -0.55071 -0.55071
-0.15727 -0.564475 -0.564475
-0.160749 -0.591077 -0.591077
-0.115344 -0.589873 -0.589873
-0.112818 -0.563253 -0.563253
-0.159011 -0.577705 -0.577705
-0.138031 -0.590415 -0.590415
-0.114082 -0.576492 -0.576492
-0.135028 -0.563803 -0.563803
-0.136531 -0.577039 -0.577039
-0.160749 -0.591077 -0.591077
-0.164213 -0.618241 -0.618241
-0.11786 -0.617057 -0.617057
-0.115344 -0.589873 -0.589873
-0.162483 -0.604589 -0.604589
-0.141021 -0.617589 -0.617589
-0.116603 -0.603395 -0.603395
-0.138031 -0.590415 -0.590415
-0.139527 -0.603932 -0.603932
-0.164213 -0.618241 -0.618241
-0.167662 -0.645963 -0.645963
-0.120367 -0.644799 -0.644799
-0.11786 -0.617057 -0.617057
-0.165939 -0.632032 -0.632032
-0.143998 -0.645322 -0.645322
-0.119114 -0.630858 -0.630858
-0.141021 -0.617589 -0.617589
-0.142511 -0.631386 -0.631386
-0.167662 -0.645963 -0.645963
-0.171095 -0.674241 -0.674241
-0.122864 -0.673097 -0.673097
-0.120367 -0.644799 -0.644799
-0.16938 -0.660033 -0.660033
-0.146964 -0.67361 -0.67361
-0.121616 -0.658879 -0.658879
-0.143998 -0.645322 -0.645322
-0.145482 -0.659397 -0.659397
-0.171095 -0.674241 -0.674241
-0.174512 -0.703071 -0.703071
-0.125353 -0.701946 -0.701946
-0.122864 -0.673097 -0.673097
-0.172805 -0.688587 -0.688587
-0.149917 -0.70245 -0.70245
-0.124109 -0.687453 -0.687453
-0.146964 -0.67361 -0.67361
-0.148442 -0.687961 -0.687961
-0.174512 -0.703071 -0.703071
-0.177915 -0.732449 -0.732449
-0.127832 -0.731344 -0.731344
-0.125353 -0.701946 -0.701946
-0.176216 -0.717691 -0.717691
-0.152858 -0.731838 -0.731838
-0.126593 -0.716577 -0.716577
-0.149917 -0.70245 -0.70245
-0.151389 -0.717076 -0.717076
-0.177915 -0.732449 -0.732449
-0.181302 -0.76237 -0.76237
-0.130302 -0.761286 -0.761286
-0.127832 -0.731344 -0.731344
-0.179611 -0.747342 -0.747342
-0.155787 -0.76177 -0.76177
-0.129068 -0.746247 -0.746247
-0.152858 -0.731838 -0.731838
-0.154324 -0.746736 -0.746736
-0.181302 -0.76237 -0.76237
-0.184675 -0.792833 -0.792833
-0.132764 -0.791769 -0.791769
-0.130302 -0.761286 -0.761286
-0.18299 -0.777534 -0.777534
-0.158703 -0.792244 -0.792244
-0.131534 -0.77646 -0.77646
-0.155787 -0.76177 -0.76177
-0.157246 -0.77694 -0.77694
-0.184675 -0.792833 -0.792833
-0.188032 -0.823833 -0.823833
-0.135216 -0.822789 -0.822789
-0.132764 -0.791769 -0.791769
-0.186355 -0.808266 -0.808266
-0.161608 -0.823254 -0.823254
-0.133991 -0.807212 -0.807212
-0.158703 -0.792244 -0.792244
-0.160157 -0.807682 -0.807682
-0.188032 -0.823833 -0.823833
-0.191374 -0.855366 -0.855366
-0.13766 -0.854343 -0.854343
-0.135216 -0.822789 -0.822789
-0.189705 -0.839533 -0.839533
-0.164501 -0.854798 -0.854798
-0.136439 -0.838499 -0.838499
-0.161608 -0.823254 -0.823254
-0.163056 -0.838959 -0.838959
-0.191374 -0.855366 -0.855366
-0.194702 -0.887429 -0.887429
-0.140095 -0.886427 -0.886427
-0.13766 -0.854343 -0.854343
-0.19304 -0.871332 -0.871332
-0.167383 -0.886872 -0.886872
-0.138879 -0.870319 -0.870319
-0.164501 -0.854798 -0.854798
-0.165944 -0.870769 -0.870769
-0.194702 -0.887429 -0.887429
-0.198015 -0.920019 -0.920019
-0.142522 -0.919037 -0.919037
-0.140095 -0.886427 -0.886427
-0.19636 -0.903659 -0.903659
-0.170252 -0.919472 -0.919472
-0.141309 -0.902666 -0.902666
-0.167383 -0.886872 -0.886872
-0.168819 -0.903106 -0.903106
-0.198015 -0.920019 -0.920019
-0.201313 -0.953131 -0.953131
-0.144939 -0.95217 -0.95217
-0.142522 -0.919037 -0.919037
-0.199666 -0.93651 -0.93651
-0.17311 -0.952595 -0.952595
-0.143732 -0.935538 -0.935538
-0.170252 -0.919472 -0.919472
-0.171683 -0.935968 -0.935968
-0.201313 -0.953131 -0.953131
-0.204596 -0.986762 -0.986762
-0.147349 -0.985822 -0.985822
-0.144939 -0.95217 -0.95217
-0.202956 -0.969882 -0.969882
-0.175957 -0.986237 -0.986237
-0.146145 -0.968931 -0.968931
-0.17311 -0.952595 -0.952595
-0.174535 -0.969351 -0.969351
-0.204596 -0.986762 -0.986762
-0.207865 -1.02091 -1.02091
-0.149749 -1.01999 -1.01999
-0.147349 -0.985822 -0.985822
-0.206232 -1.00377 -1.00377
-0.178791 -1.02039 -1.02039
-0.14855 -1.00284 -1.00284
-0.175957 -0.986237 -0.986237
-0.177375 -1.00325 -1.00325
-0.207865 -1.02091 -1.02091
-0.211119 -1.05557 -1.05557
-0.152142 -1.05467 -1.05467
-0.149749 -1.01999 -1.01999
-0.209494 -1.03817 -1.03817
-0.181615 -1.05506 -1.05506
-0.150947 -1.03727 -1.03727
-0.178791 -1.02039 -1.02039
-0.180204 -1.03767 -1.03767
-0.211119 -1.05557 -1.05557
-0.214359 -1.09073 -1.09073
-0.154526 -1.08986 -1.08986
-0.152142 -1.05467 -1.05467
-0.212741 -1.07309 -1.07309
-0.184426 -1.09024 -1.09024
-0.153335 -1.0722 -1.0722
-0.181615 -1.05506 -1.05506
-0.183022 -1.07259 -1.07259
-0.214359 -1.09073 -1.09073
-0.217584 -1.1264 -1.1264
-0.156902 -1.12555 -1.12555
-0.154526 -1.08986 -1.08986
-0.215973 -1.10851 -1.10851
-0.187227 -1.12592 -1.12592
-0.155715 -1.10764 -1.10764
-0.184426 -1.09024 -1.09024
-0.185828 -1.10802 -1.10802
-0.217584 -1.1264 -1.1264
-0.220795 -1.16258 -1.16258
-0.159269 -1.16174 -1.16174
-0.156902 -1.12555 -1.12555
-0.219191 -1.14443 -1.14443
-0.190016 -1.16211 -1.16211
-0.158086 -1.14358 -1.14358
-0.187227 -1.12592 -1.12592
-0.188623 -1.14395 -1.14395
-0.220795 -1.16258 -1.16258
-0.223991 -1.19925 -1.19925
-0.161628 -1.19843 -1.19843
-0.159269 -1.16174 -1.16174
-0.222395 -1.18085 -1.18085
-0.192794 -1.19879 -1.19879
-0.16045 -1.18002 -1.18002
-0.190016 -1.16211 -1.16211
-0.191406 -1.18038 -1.18038
-0.223991 -1.19925 -1.19925
-0.227173 -1.23641 -1.23641
-0.163979 -1.23562 -1.23562
-0.161628 -1.19843 -1.19843
-0.225584 -1.21777 -1.21777
-0.19556 -1.23596 -1.23596
-0.162805 -1.21696 -1.21696
-0.192794 -1.19879 -1.19879
-0.194179 -1.21731 -1.21731
-0.227173 -1.23641 -1.23641
-0.230341 -1.27406 -1.27406
-0.166322 -1.27329 -1.27329
-0.163979 -1.23562 -1.23562
-0.228759 -1.25517 -1.25517
-0.198316 -1.27362 -1.27362
-0.165152 -1.25439 -1.25439
-0.19556 -1.23596 -1.23596
-0.19694 -1.25473 -1.25473
-0.230341 -1.27406 -1.27406
-0.233495 -1.3122 -1.3122
-0.168657 -1.31145 -1.31145
-0.166322 -1.27329 -1.27329
-0.23192 -1.29307 -1.29307
-0.20106 -1.31177 -1.31177
-0.167491 -1.29231 -1.29231
-0.198316 -1.27362 -1.27362
-0.199689 -1.29264 -1.29264
-0.233495 -1.3122 -1.3122
-0.236634 -1.35082 -1.35082
-0.170984 -1.3501 -1.3501
-0.168657 -1.31145 -1.31145
-0.235066 -1.33145 -1.33145
-0.203793 -1.35041 -1.35041
-0.169821 -1.33071 -1.33071
-0.20106 -1.31177 -1.31177
-0.202428 -1.33103 -1.33103
-0.236634 -1.35082 -1.35082
-0.239759 -1.38992 -1.38992
-0.173303 -1.38922 -1.38922
-0.170984 -1.3501 -1.3501
-0.238199 -1.37031 -1.37031
-0.206515 -1.38952 -1.38952
-0.172144 -1.3696 -1.3696
-0.203793 -1.35041 -1.35041
-0.205156 -1.3699 -1.3699
-0.239759 -1.38992 -1.38992
-0.242871 -1.4295 -1.4295
-0.175613 -1.42882 -1.42882
-0.173303 -1.38922 -1.38922
-0.241317 -1.40965 -1.40965
-0.209226 -1.42911 -1.42911
-0.174459 -1.40896 -1.40896
-0.206515 -1.38952 -1.38952
-0.207872 -1.40926 -1.40926
-0.242871 -1.4295 -1.4295
-0.245968 -1.46955 -1.46955
-0.177916 -1.46889 -1.46889
-0.175613 -1.42882 -1.42882
-0.244421 -1.44947 -1.44947
-0.211926 -1.46917 -1.46917
-0.176766 -1.44879 -1.44879
-0.209226 -1.42911 -1.42911
-0.210577 -1.44908 -1.44908
-0.245968 -1.46955 -1.46955
-0.249051 -1.51007 -1.51007
-0.180211 -1.50943 -1.50943
-0.177916 -1.46889 -1.46889
-0.247511 -1.48975 -1.48975
-0.214615 -1.5097 -1.5097
-0.179065 -1.4891 -1.4891
-0.211926 -1.46917 -1.46917
-0.213272 -1.48937 -1.48937
-0.249051 -1.51007 -1.51007
-0.25212 -1.55105 -1.55105
-0.182498 -1.55043 -1.55043
-0.180211 -1.50943 -1.50943
-0.250587 -1.5305 -1.5305
-0.217293 -1.55069 -1.55069
-0.181356 -1.52987 -1.52987
-0.214615 -1.5097 -1.5097
-0.215955 -1.53014 -1.53014
-0.25212 -1.55105 -1.55105
-0.255174 -1.59249 -1.59249
-0.184777 -1.5919 -1.5919
-0.182498 -1.55043 -1.55043
-0.253649 -1.57171 -1.57171
-0.21996 -1.59214 -1.59214
-0.183639 -1.57111 -1.57111
-0.217293 -1.55069 -1.55069
-0.218628 -1.57136 -1.57136
-0.255174 -1.59249 -1.59249
-0.258215 -1.63439 -1.63439
-0.187049 -1.63382 -1.63382
-0.184777 -1.5919 -1.5919
-0.256697 -1.61338 -1.61338
-0.222616 -1.63406 -1.63406
-0.185914 -1.6128 -1.6128
-0.21996 -1.59214 -1.59214
-0.221289 -1.61304 -1.61304
-0.258215 -1.63439 -1.63439
-0.261242 -1.67675 -1.67675
-0.189312 -1.67619 -1.67619
-0.187049 -1.63382 -1.63382
-0.259731 -1.65551 -1.65551
-0.225261 -1.67642 -1.67642
-0.188181 -1.65495 -1.65495
-0.222616 -1.63406 -1.63406
-0.22394 -1.65518 -1.65518
-0.261242 -1.67675 -1.67675
-0.264255 -1.71955 -1.71955
-0.191568 -1.71902 -1.71902
-0.189312 -1.67619 -1.67619