<?xml version="1.0"?>
<VTKFile type="UnstructuredGrid">
  <UnstructuredGrid>
  <Piece NumberOfPoints="12411"  NumberOfCells="1379">
    <Points>
      <DataArray type="Float64" NumberOfComponents="3" format="ascii">
0 0 0
2.52576 -0.0061212 0
2.53073 4.28365 0
0 4.28571 0
1.26233 -0.00382029 0
2.5288 2.13916 0
1.26547 4.28498 0
0 2.14286 0
1.26461 2.14123 0
2.52576 -0.0061212 0
5.05318 -0.0106184 0
5.06084 4.27976 0
2.53073 4.28365 0
3.78945 -0.00828479 0
5.0572 2.13481 0
3.79582 4.28189 0
2.5288 2.13916 0
3.79297 2.13705 0
5.05318 -0.0106184 0
7.5805 -0.0160453 0
7.59089 4.2744 0
5.06084 4.27976 0
6.31686 -0.0131724 0
7.58575 2.12936 0
6.32586 4.27727 0
5.0572 2.13481 0
6.32146 2.13226 0
7.5805 -0.0160453 0
10.1077 -0.0230336 0
10.121 4.26742 0
7.59089 4.2744 0
8.84412 -0.0193278 0
10.1144 2.12238 0
8.85592 4.27112 0
7.58575 2.12936 0
8.85006 2.12607 0
10.1077 -0.0230336 0
12.6349 -0.0317272 0
12.6511 4.2587 0
10.121 4.26742 0
11.3713 -0.0271613 0
12.643 2.11367 0
11.386 4.26328 0
10.1144 2.12238 0
11.3787 2.11825 0
12.6349 -0.0317272 0
15.162 -0.0422236 0
15.1813 4.24818 0
12.6511 4.2587 0
13.8985 -0.0367478 0
15.1717 2.10317 0
13.9162 4.25367 0
12.643 2.11367 0
13.9074 2.10865 0
15.162 -0.0422236 0
17.6892 -0.0545357 0
17.7115 4.23583 0
15.1813 4.24818 0
16.4256 -0.0481521 0
17.7004 2.09084 0
16.4464 4.24223 0
15.1717 2.10317 0
16.4361 2.09723 0
17.6892 -0.0545357 0
20.2164 -0.0686751 0
20.2418 4.22165 0
17.7115 4.23583 0
18.9528 -0.0613771 0
20.2291 2.07668 0
18.9767 4.22896 0
17.7004 2.09084 0
18.9648 2.08399 0
20.2164 -0.0686751 0
22.7436 -0.0846345 0
22.7721 4.20564 0
20.2418 4.22165 0
21.48 -0.0764278 0
22.7579 2.0607 0
21.507 4.21387 0
20.2291 2.07668 0
21.4935 2.06892 0
22.7436 -0.0846345 0
25.2709 -0.102407 0
25.3024 4.18782 0
22.7721 4.20564 0
24.0073 -0.0932948 0
25.2867 2.0429 0
24.0373 4.19696 0
22.7579 2.0607 0
24.0223 2.05203 0
25.2709 -0.102407 0
27.7982 -0.121983 0
27.8328 4.1682 0
25.3024 4.18782 0
26.5346 -0.11197 0
27.8156 2.0233 0
26.5676 4.17824 0
25.2867 2.0429 0
26.5511 2.03333 0
27.7982 -0.121983 0
30.3256 -0.143352 0
30.3632 4.14678 0
27.8328 4.1682 0
29.0619 -0.132444 0
30.3444 2.00191 0
29.098 4.15771 0
27.8156 2.0233 0
29.08 2.01283 0
30.3256 -0.143352 0
32.853 -0.166505 0
32.8936 4.12357 0
30.3632 4.14678 0
31.5893 -0.154707 0
32.8733 1.97873 0
31.6284 4.1354 0
30.3444 2.00191 0
31.6089 1.99054 0
32.853 -0.166505 0
35.3804 -0.191431 0
35.424 4.09859 0
32.8936 4.12357 0
34.1167 -0.178747 0
35.4023 1.95377 0
34.1588 4.11131 0
32.8733 1.97873 0
34.1378 1.96647 0
35.3804 -0.191431 0
37.9079 -0.218121 0
37.9545 4.07185 0
35.424 4.09859 0
36.6441 -0.204556 0
37.9312 1.92705 0
36.6893 4.08544 0
35.4023 1.95377 0
36.6667 1.94063 0
37.9079 -0.218121 0
40.4354 -0.246565 0
40.485 4.04335 0
37.9545 4.07185 0
39.1716 -0.232125 0
40.4602 1.89858 0
39.2197 4.05782 0
37.9312 1.92705 0
39.1957 1.91303 0
40.4354 -0.246565 0
42.9629 -0.276754 0
43.0155 4.0131 0
40.485 4.04335 0
41.6992 -0.261442 0
42.9893 1.86836 0
41.7502 4.02844 0
40.4602 1.89858 0
41.7247 1.88369 0
42.9629 -0.276754 0
45.4905 -0.308677 0
45.546 3.98111 0
43.0155 4.0131 0
44.2267 -0.292499 0
45.5183 1.8364 0
44.2807 3.99732 0
42.9893 1.86836 0
44.2538 1.8526 0
45.4905 -0.308677 0
48.0182 -0.342325 0
48.0766 3.9474 0
45.546 3.98111 0
46.7543 -0.325286 0
48.0474 1.80272 0
46.8113 3.96447 0
45.5183 1.8364 0
46.7829 1.81978 0
48.0182 -0.342325 0
50.5458 -0.377688 0
50.6071 3.91197 0
48.0766 3.9474 0
49.282 -0.359793 0
50.5765 1.76733 0
49.3418 3.9299 0
48.0474 1.80272 0
49.3119 1.78524 0
50.5458 -0.377688 0
53.0735 -0.414758 0
53.1377 3.87484 0
50.6071 3.91197 0
51.8097 -0.39601 0
53.1056 1.73022 0
51.8724 3.89362 0
50.5765 1.76733 0
51.8411 1.74899 0
53.0735 -0.414758 0
55.6012 -0.453524 0
55.6683 3.836 0
53.1377 3.87484 0
54.3374 -0.433929 0
55.6348 1.69142 0
54.403 3.85563 0
53.1056 1.73022 0
54.3702 1.71103 0
55.6012 -0.453524 0
58.129 -0.493977 0
58.1989 3.79548 0
55.6683 3.836 0
56.8651 -0.47354 0
58.164 1.65093 0
56.9336 3.81595 0
55.6348 1.69142 0
56.8994 1.67139 0
58.129 -0.493977 0
60.6568 -0.536107 0
60.7295 3.75328 0
58.1989 3.79548 0
59.3929 -0.514833 0
60.6932 1.60876 0
59.4642 3.77459 0
58.164 1.65093 0
59.4286 1.63006 0
60.6568 -0.536107 0
63.1846 -0.579904 0
63.2601 3.70941 0
60.7295 3.75328 0
61.9207 -0.557798 0
63.2224 1.56493 0
61.9948 3.73155 0
60.6932 1.60876 0
61.9578 1.58705 0
63.1846 -0.579904 0
65.7124 -0.62536 0
65.7908 3.66387 0
63.2601 3.70941 0
64.4485 -0.602425 0
65.7516 1.51943 0
64.5255 3.68685 0
63.2224 1.56493 0
64.487 1.54239 0
65.7124 -0.62536 0
68.2403 -0.672464 0
68.3214 3.61669 0
65.7908 3.66387 0
66.9764 -0.648706 0
68.2809 1.47229 0
67.0561 3.64049 0
65.7516 1.51943 0
67.0163 1.49607 0
68.2403 -0.672464 0
70.7682 -0.721206 0
70.8521 3.56787 0
68.3214 3.61669 0
69.5042 -0.696631 0
70.8102 1.42351 0
69.5868 3.59249 0
68.2809 1.47229 0
69.5455 1.4481 0
70.7682 -0.721206 0
73.2961 -0.771578 0
73.3828 3.51742 0
70.8521 3.56787 0
72.0321 -0.746189 0
73.3395 1.3731 0
72.1174 3.54285 0
70.8102 1.42351 0
72.0748 1.39851 0
73.2961 -0.771578 0
75.8241 -0.82357 0
75.9135 3.46535 0
73.3828 3.51742 0
74.5601 -0.797372 0
75.8688 1.32106 0
74.6481 3.49159 0
73.3395 1.3731 0
74.6041 1.34728 0
75.8241 -0.82357 0
78.352 -0.877172 0
78.4442 3.41166 0
75.9135 3.46535 0
77.088 -0.85017 0
78.3981 1.26742 0
77.1788 3.43871 0
75.8688 1.32106 0
77.1335 1.29444 0
78.352 -0.877172 0
80.88 -0.932374 0
80.9748 3.35638 0
78.4442 3.41166 0
79.616 -0.904573 0
80.9275 1.21217 0
79.7095 3.38422 0
78.3981 1.26742 0
79.6628 1.24 0
80.88 -0.932374 0
83.408 -0.989167 0
83.5056 3.2995 0
80.9748 3.35638 0
82.144 -0.960572 0
83.4568 1.15534 0
82.2402 3.32814 0
80.9275 1.21217 0
82.1922 1.18395 0
83.408 -0.989167 0
85.9361 -1.04754 0
86.0363 3.24104 0
83.5056 3.2995 0
84.672 -1.01816 0
85.9862 1.09692 0
84.7709 3.27047 0
83.4568 1.15534 0
84.7215 1.12632 0
85.9361 -1.04754 0
88.4641 -1.10749 0
88.567 3.18101 0
86.0363 3.24104 0
87.2001 -1.07732 0
88.5156 1.03693 0
87.3016 3.21122 0
85.9862 1.09692 0
87.2509 1.06712 0
88.4641 -1.10749 0
90.9922 -1.16899 0
91.0977 3.11941 0
88.567 3.18101 0
89.7282 -1.13805 0
91.045 0.975374 0
89.8323 3.1504 0
88.5156 1.03693 0
89.7803 1.00635 0
90.9922 -1.16899 0
93.5203 -1.23206 0
93.6284 3.05626 0
91.0977 3.11941 0
92.2562 -1.20033 0
93.5744 0.912268 0
92.363 3.08803 0
91.045 0.975374 0
92.3097 0.944014 0
93.5203 -1.23206 0
96.0484 -1.29666 0
96.1591 2.99157 0
93.6284 3.05626 0
94.7844 -1.26416 0
96.1038 0.847618 0
94.8938 3.0241 0
93.5744 0.912268 0
94.8391 0.880135 0
96.0484 -1.29666 0
98.5765 -1.36279 0
98.6899 2.92534 0
96.1591 2.99157 0
97.3125 -1.32954 0
98.6332 0.781434 0
97.4245 2.95864 0
96.1038 0.847618 0
97.3685 0.814717 0
98.5765 -1.36279 0
101.105 -1.43045 0
101.221 2.85758 0
98.6899 2.92534 0
99.8406 -1.39643 0
101.163 0.713726 0
99.9552 2.89165 0
98.6332 0.781434 0
99.898 0.74777 0
101.105 -1.43045 0
103.633 -1.49963 0
103.751 2.78831 0
101.221 2.85758 0
102.369 -1.46485 0
103.692 0.644504 0
102.486 2.82314 0
101.163 0.713726 0
102.427 0.679304 0
103.633 -1.49963 0
106.161 -1.57031 0
106.282 2.71754 0
103.751 2.78831 0
104.897 -1.53478 0
106.222 0.573776 0
105.017 2.75311 0
103.692 0.644504 0
104.957 0.609328 0
106.161 -1.57031 0
108.689 -1.64248 0
108.813 2.64527 0
106.282 2.71754 0
107.425 -1.60621 0
108.751 0.501554 0
107.547 2.68159 0
106.222 0.573776 0
107.486 0.537851 0
108.689 -1.64248 0
111.217 -1.71614 0
111.343 2.57151 0
108.813 2.64527 0
109.953 -1.67912 0
111.281 0.427845 0
110.078 2.60858 0
108.751 0.501554 0
110.016 0.464885 0
111.217 -1.71614 0
113.746 -1.79127 0
113.874 2.49628 0
111.343 2.57151 0
112.482 -1.75352 0
113.81 0.352661 0
112.609 2.53408 0
111.281 0.427845 0
112.545 0.390437 0
113.746 -1.79127 0
116.274 -1.86787 0
116.405 2.41958 0
113.874 2.49628 0
115.01 -1.82939 0
116.339 0.27601 0
115.14 2.45811 0
113.81 0.352661 0
115.075 0.314518 0
116.274 -1.86787 0
118.802 -1.94593 0
118.936 2.34142 0
116.405 2.41958 0
117.538 -1.90672 0
118.869 0.197902 0
117.67 2.38068 0
116.339 0.27601 0
117.604 0.237137 0
118.802 -1.94593 0
121.33 -2.02543 0
121.466 2.26182 0
118.936 2.34142 0
120.066 -1.9855 0
121.398 0.118347 0
120.201 2.3018 0
118.869 0.197902 0
120.134 0.158305 0
121.33 -2.02543 0
123.859 -2.10637 0
123.997 2.18078 0
121.466 2.26182 0
122.595 -2.06572 0
123.928 0.037354 0
122.732 2.22148 0
121.398 0.118347 0
122.663 0.0780295 0
123.859 -2.10637 0
126.387 -2.18874 0
126.528 2.09831 0
123.997 2.18078 0
125.123 -2.14738 0
126.457 -0.0450667 0
125.262 2.13972 0
123.928 0.037354 0
125.193 -0.00367845 0
126.387 -2.18874 0
128.915 -2.27253 0
129.058 2.01442 0
126.528 2.09831 0
127.651 -2.23046 0
128.987 -0.128906 0
127.793 2.05654 0
126.457 -0.0450667 0
127.722 -0.0868095 0
128.915 -2.27253 0
131.444 -2.35772 0
131.589 1.92912 0
129.058 2.01442 0
130.179 -2.31495 0
131.516 -0.214154 0
130.324 1.97194 0
128.987 -0.128906 0
130.252 -0.171354 0
131.444 -2.35772 0
133.972 -2.44431 0
134.12 1.84242 0
131.589 1.92912 0
132.708 -2.40084 0
134.046 -0.300801 0
132.854 1.88594 0
131.516 -0.214154 0
132.781 -0.257303 0
133.972 -2.44431 0
136.5 -2.5323 0
136.65 1.75433 0
134.12 1.84242 0
135.236 -2.48813 0
136.575 -0.388837 0
135.385 1.79855 0
134.046 -0.300801 0
135.311 -0.344646 0
136.5 -2.5323 0
139.029 -2.62166 0
139.181 1.66486 0
136.65 1.75433 0
137.764 -2.57681 0
139.105 -0.478253 0
137.916 1.70977 0
136.575 -0.388837 0
137.84 -0.433373 0
139.029 -2.62166 0
141.557 -2.71239 0
141.712 1.57402 0
139.181 1.66486 0
140.293 -2.66685 0
141.634 -0.56904 0
140.446 1.61961 0
139.105 -0.478253 0
140.37 -0.523476 0
141.557 -2.71239 0
144.085 -2.80448 0
144.242 1.48182 0
141.712 1.57402 0
142.821 -2.75827 0
144.164 -0.661187 0
142.977 1.52809 0
141.634 -0.56904 0
142.899 -0.614944 0
144.085 -2.80448 0
146.614 -2.89793 0
146.773 1.38827 0
144.242 1.48182 0
145.35 -2.85104 0
146.693 -0.754685 0
145.508 1.43521 0
144.164 -0.661187 0
145.429 -0.707768 0
146.614 -2.89793 0
149.142 -2.99271 0
149.304 1.29338 0
146.773 1.38827 0
147.878 -2.94515 0
149.223 -0.849525 0
148.038 1.34099 0
[...]
    <PointData>
      <DataArray type="Float64" NumberOfComponents="3" Name="Displacement" format="ascii">
0 0 0
-0.0123118 -0.0061212 -0.0061212
-0.0073441 -0.00206171 -0.00206171
0 0 0
-0.00670178 -0.00382029 -0.00382029
-0.00927501 -0.00369715 -0.00369715
-0.00356317 -0.000737421 -0.000737421
0 0 0
-0.00442273 -0.00163068 -0.00163068
-0.0123118 -0.0061212 -0.0061212
-0.0229635 -0.0106184 -0.0106184
-0.0152981 -0.00595836 -0.00595836
-0.0073441 -0.00206171 -0.00206171
-0.0176523 -0.00828479 -0.00828479
-0.0189391 -0.00805209 -0.00805209
-0.0112832 -0.00382178 -0.00382178
-0.00927501 -0.00369715 -0.00369715
-0.0141344 -0.00580946 -0.00580946
-0.0229635 -0.0106184 -0.0106184
-0.0337149 -0.0160453 -0.0160453
-0.0233245 -0.0113141 -0.0113141
-0.0152981 -0.00595836 -0.00595836
-0.0283196 -0.0131724 -0.0131724
-0.0284633 -0.0135001 -0.0135001
-0.0193159 -0.00844743 -0.00844743
-0.0189391 -0.00805209 -0.00805209
-0.0237133 -0.0105981 -0.0105981
-0.0337149 -0.0160453 -0.0160453
-0.0445585 -0.0230336 -0.0230336
-0.0313133 -0.0182935 -0.0182935
-0.0233245 -0.0113141 -0.0113141
-0.0391283 -0.0193278 -0.0193278
-0.0379093 -0.0204755 -0.0204755
-0.0273254 -0.0145913 -0.0145913
-0.0284633 -0.0135001 -0.0135001
-0.0331926 -0.0167824 -0.0167824
-0.0445585 -0.0230336 -0.0230336
-0.055464 -0.0317272 -0.0317272
-0.0392383 -0.0270125 -0.0270125
-0.0313133 -0.0182935 -0.0182935
-0.0500065 -0.0271613 -0.0271613
-0.0473276 -0.0291833 -0.0291833
-0.0352832 -0.0224306 -0.0224306
-0.0379093 -0.0204755 -0.0204755
-0.0426211 -0.0246064 -0.0246064
-0.055464 -0.0317272 -0.0317272
-0.0663784 -0.0422236 -0.0422236
-0.0471169 -0.0375379 -0.0375379
-0.0392383 -0.0270125 -0.0270125
-0.0609218 -0.0367478 -0.0367478
-0.0567196 -0.0396885 -0.0396885
-0.0431829 -0.0320475 -0.0320475
-0.0473276 -0.0291833 -0.0291833
-0.0520269 -0.0342092 -0.0342092
-0.0663784 -0.0422236 -0.0422236
-0.0772835 -0.0545357 -0.0545357
-0.0549532 -0.0498881 -0.0498881
-0.0471169 -0.0375379 -0.0375379
-0.0718333 -0.0481521 -0.0481521
-0.0660858 -0.0520186 -0.0520186
-0.0510399 -0.0434844 -0.0434844
-0.0567196 -0.0396885 -0.0396885
-0.0614062 -0.0456248 -0.0456248
-0.0772835 -0.0545357 -0.0545357
-0.0881604 -0.0686751 -0.0686751
-0.0627547 -0.0640678 -0.0640678
-0.0549532 -0.0498881 -0.0498881
-0.0827262 -0.0613771 -0.0613771
-0.0754212 -0.0661769 -0.0661769
-0.0588581 -0.0567495 -0.0567495
-0.0660858 -0.0520186 -0.0520186
-0.0707575 -0.0588695 -0.0588695
-0.0881604 -0.0686751 -0.0686751
-0.0990018 -0.0846345 -0.0846345
-0.0705236 -0.0800712 -0.0800712
-0.0627547 -0.0640678 -0.0640678
-0.0935859 -0.0764278 -0.0764278
-0.084724 -0.0821585 -0.0821585
-0.0666431 -0.0718421 -0.0718421
-0.0754212 -0.0661769 -0.0661769
-0.0800768 -0.0739403 -0.0739403
-0.0990018 -0.0846345 -0.0846345
-0.109803 -0.102407 -0.102407
-0.0782629 -0.0978901 -0.0978901
-0.0705236 -0.0800712 -0.0800712
-0.104408 -0.0932948 -0.0932948
-0.0939926 -0.0999546 -0.0999546
-0.0743969 -0.0887543 -0.0887543
-0.084724 -0.0821585 -0.0821585
-0.0893626 -0.0908303 -0.0908303
-0.109803 -0.102407 -0.102407
-0.120562 -0.121983 -0.121983
-0.0859739 -0.117514 -0.117514
-0.0782629 -0.0978901 -0.0978901
-0.115188 -0.11197 -0.11197
-0.103227 -0.119556 -0.119556
-0.0821218 -0.107477 -0.107477
-0.0939926 -0.0999546 -0.0999546
-0.098614 -0.10953 -0.10953
-0.120562 -0.121983 -0.121983
-0.131279 -0.143352 -0.143352
-0.0936581 -0.138934 -0.138934
-0.0859739 -0.117514 -0.117514
-0.125926 -0.132444 -0.132444
-0.112427 -0.140951 -0.140951
-0.0898192 -0.128001 -0.128001
-0.103227 -0.119556 -0.119556
-0.107831 -0.13003 -0.13003
-0.131279 -0.143352 -0.143352
-0.141955 -0.166505 -0.166505
-0.101317 -0.162139 -0.162139
-0.0936581 -0.138934 -0.138934
-0.136622 -0.154707 -0.154707
-0.121594 -0.164131 -0.164131
-0.0974906 -0.150314 -0.150314
-0.112427 -0.140951 -0.140951
-0.117014 -0.152319 -0.152319
-0.141955 -0.166505 -0.166505
-0.15259 -0.191431 -0.191431
-0.108951 -0.18712 -0.18712
-0.101317 -0.162139 -0.162139
-0.147277 -0.178747 -0.178747
-0.130728 -0.189085 -0.189085
-0.105137 -0.174408 -0.174408
-0.121594 -0.164131 -0.164131
-0.126165 -0.176387 -0.176387
-0.15259 -0.191431 -0.191431
-0.163185 -0.218121 -0.218121
-0.116562 -0.213866 -0.213866
-0.108951 -0.18712 -0.18712
-0.157892 -0.204556 -0.204556
-0.139831 -0.215805 -0.215805
-0.11276 -0.200273 -0.200273
-0.130728 -0.189085 -0.189085
-0.135284 -0.202225 -0.202225
-0.163185 -0.218121 -0.218121
-0.173742 -0.246565 -0.246565
-0.124152 -0.242368 -0.242368
-0.116562 -0.213866 -0.213866
-0.168468 -0.232125 -0.232125
-0.148904 -0.244279 -0.244279
-0.12036 -0.227898 -0.227898
-0.139831 -0.215805 -0.215805
-0.144371 -0.229823 -0.229823
-0.173742 -0.246565 -0.246565
-0.184261 -0.276754 -0.276754
-0.13172 -0.272616 -0.272616
-0.124152 -0.242368 -0.242368
-0.179006 -0.261442 -0.261442
-0.157948 -0.274498 -0.274498
-0.127938 -0.257275 -0.257275
-0.148904 -0.244279 -0.244279
-0.153429 -0.259171 -0.259171
-0.184261 -0.276754 -0.276754
-0.194744 -0.308677 -0.308677
-0.139268 -0.304601 -0.304601
-0.13172 -0.272616 -0.272616
-0.189507 -0.292499 -0.292499
-0.166963 -0.306453 -0.306453
-0.135497 -0.288392 -0.288392
-0.157948 -0.274498 -0.274498
-0.162459 -0.290259 -0.290259
-0.194744 -0.308677 -0.308677
-0.205191 -0.342325 -0.342325
-0.146798 -0.338313 -0.338313
-0.139268 -0.304601 -0.304601
-0.199972 -0.325286 -0.325286
-0.175952 -0.340134 -0.340134
-0.143035 -0.321242 -0.321242
-0.166963 -0.306453 -0.306453
-0.171461 -0.323078 -0.323078
-0.205191 -0.342325 -0.342325
-0.215605 -0.377688 -0.377688
-0.15431 -0.373742 -0.373742
-0.146798 -0.338313 -0.338313
-0.210402 -0.359793 -0.359793
-0.184915 -0.375531 -0.375531
-0.150556 -0.355813 -0.355813
-0.175952 -0.340134 -0.340134
-0.180436 -0.357619 -0.357619
-0.215605 -0.377688 -0.377688
-0.225986 -0.414758 -0.414758
-0.161805 -0.410878 -0.410878
-0.15431 -0.373742 -0.373742
-0.220799 -0.39601 -0.39601
-0.193852 -0.412635 -0.412635
-0.15806 -0.392097 -0.392097
-0.184915 -0.375531 -0.375531
-0.189387 -0.393871 -0.393871
-0.225986 -0.414758 -0.414758
-0.236334 -0.453524 -0.453524
-0.169285 -0.449713 -0.449713
-0.161805 -0.410878 -0.410878
-0.231164 -0.433929 -0.433929
-0.202766 -0.451437 -0.451437
-0.165547 -0.430084 -0.430084
-0.193852 -0.412635 -0.412635
-0.198312 -0.431825 -0.431825
-0.236334 -0.453524 -0.453524
-0.246651 -0.493977 -0.493977
-0.17675 -0.490236 -0.490236
-0.169285 -0.449713 -0.449713
-0.241496 -0.47354 -0.47354
-0.211657 -0.491926 -0.491926
-0.173019 -0.469764 -0.469764
-0.202766 -0.451437 -0.451437
-0.207214 -0.471471 -0.471471
-0.246651 -0.493977 -0.493977
-0.256938 -0.536107 -0.536107
-0.184201 -0.532438 -0.532438
-0.17675 -0.490236 -0.490236
-0.251798 -0.514833 -0.514833
-0.220526 -0.534093 -0.534093
-0.180477 -0.511128 -0.511128
-0.211657 -0.491926 -0.491926
-0.216094 -0.5128 -0.5128
-0.256938 -0.536107 -0.536107
-0.267196 -0.579904 -0.579904
-0.191639 -0.576309 -0.576309
-0.184201 -0.532438 -0.532438
-0.262071 -0.557798 -0.557798
-0.229374 -0.577928 -0.577928
-0.187922 -0.554166 -0.554166
-0.220526 -0.534093 -0.534093
-0.224953 -0.555803 -0.555803
-0.267196 -0.579904 -0.579904
-0.277425 -0.62536 -0.62536
-0.199066 -0.62184 -0.62184
-0.191639 -0.576309 -0.576309
-0.272314 -0.602425 -0.602425
-0.238202 -0.623422 -0.623422
-0.195354 -0.598868 -0.598868
-0.229374 -0.577928 -0.577928
-0.233791 -0.600469 -0.600469
-0.277425 -0.62536 -0.62536
-0.287627 -0.672464 -0.672464
-0.206481 -0.66902 -0.66902
-0.199066 -0.62184 -0.62184
-0.28253 -0.648706 -0.648706
-0.247011 -0.670566 -0.670566
-0.202775 -0.645224 -0.645224
-0.238202 -0.623422 -0.623422
-0.242609 -0.646789 -0.646789
-0.287627 -0.672464 -0.672464
-0.297803 -0.721206 -0.721206
-0.213887 -0.717841 -0.717841
-0.206481 -0.66902 -0.66902
-0.292719 -0.696631 -0.696631
-0.255801 -0.719349 -0.719349
-0.210185 -0.693226 -0.693226
-0.247011 -0.670566 -0.670566
-0.251408 -0.694753 -0.694753
-0.297803 -0.721206 -0.721206
-0.307953 -0.771578 -0.771578
-0.221283 -0.768293 -0.768293
-0.213887 -0.717841 -0.717841
-0.302881 -0.746189 -0.746189
-0.264574 -0.769762 -0.769762
-0.217586 -0.742864 -0.742864
-0.255801 -0.719349 -0.719349
-0.26019 -0.744352 -0.744352
-0.307953 -0.771578 -0.771578
-0.318078 -0.82357 -0.82357
-0.228671 -0.820365 -0.820365
-0.221283 -0.768293 -0.768293
-0.313019 -0.797372 -0.797372
-0.273331 -0.821795 -0.821795
-0.224978 -0.794127 -0.794127
-0.264574 -0.769762 -0.769762
-0.268955 -0.795576 -0.795576
-0.318078 -0.82357 -0.82357
-0.32818 -0.877172 -0.877172
-0.236052 -0.87405 -0.87405
-0.228671 -0.820365 -0.820365
-0.323132 -0.85017 -0.85017
-0.282072 -0.875439 -0.875439
-0.232362 -0.847007 -0.847007
-0.273331 -0.821795 -0.821795
-0.277703 -0.848416 -0.848416
-0.32818 -0.877172 -0.877172
-0.338258 -0.932374 -0.932374
-0.243426 -0.929335 -0.929335
-0.236052 -0.87405 -0.87405
-0.333222 -0.904573 -0.904573
-0.290798 -0.930684 -0.930684
-0.23974 -0.901493 -0.901493
-0.282072 -0.875439 -0.875439
-0.286437 -0.902862 -0.902862
-0.338258 -0.932374 -0.932374
-0.348314 -0.989167 -0.989167
-0.250794 -0.986213 -0.986213
-0.243426 -0.929335 -0.929335
-0.343289 -0.960572 -0.960572
-0.29951 -0.98752 -0.98752
-0.24711 -0.957576 -0.957576
-0.290798 -0.930684 -0.930684
-0.295155 -0.958904 -0.958904
-0.348314 -0.989167 -0.989167
-0.358348 -1.04754 -1.04754
-0.258157 -1.04467 -1.04467
-0.250794 -0.986213 -0.986213
-0.353334 -1.01816 -1.01816
-0.308208 -1.04594 -1.04594
-0.254476 -1.01525 -1.01525
-0.29951 -0.98752 -0.98752
-0.303861 -1.01653 -1.01653
-0.358348 -1.04754 -1.04754
-0.368362 -1.10749 -1.10749
-0.265515 -1.10471 -1.10471
-0.258157 -1.04467 -1.04467
-0.363358 -1.07732 -1.07732
-0.316894 -1.10593 -1.10593
-0.261836 -1.07449 -1.07449
-0.308208 -1.04594 -1.04594
-0.312553 -1.07574 -1.07574
-0.368362 -1.10749 -1.10749
-0.378356 -1.16899 -1.16899
-0.27287 -1.1663 -1.1663
-0.265515 -1.10471 -1.10471
-0.373361 -1.13805 -1.13805
-0.325568 -1.16748 -1.16748
-0.269193 -1.13531 -1.13531
-0.316894 -1.10593 -1.10593
-0.321233 -1.13651 -1.13651
-0.378356 -1.16899 -1.16899
-0.38833 -1.23206 -1.23206
-0.280222 -1.22945 -1.22945
-0.27287 -1.1663 -1.1663
-0.383345 -1.20033 -1.20033
-0.334232 -1.23059 -1.23059
-0.276547 -1.19769 -1.19769
-0.325568 -1.16748 -1.16748
-0.329901 -1.19884 -1.19884
-0.38833 -1.23206 -1.23206
-0.398286 -1.29666 -1.29666
-0.287572 -1.29415 -1.29415
-0.280222 -1.22945 -1.22945
-0.39331 -1.26416 -1.26416
-0.342884 -1.29524 -1.29524
-0.283898 -1.26161 -1.26161
-0.334232 -1.23059 -1.23059
-0.338559 -1.26272 -1.26272
-0.398286 -1.29666 -1.29666
-0.408223 -1.36279 -1.36279
-0.294921 -1.36038 -1.36038
-0.287572 -1.29415 -1.29415
-0.403257 -1.32954 -1.32954
-0.351528 -1.36142 -1.36142
-0.291247 -1.32707 -1.32707
-0.342884 -1.29524 -1.29524
-0.347207 -1.32814 -1.32814
-0.408223 -1.36279 -1.36279
-0.418144 -1.43045 -1.43045
-0.302269 -1.42813 -1.42813
-0.294921 -1.36038 -1.36038
-0.413186 -1.39643 -1.39643
-0.360162 -1.42913 -1.42913
-0.298595 -1.39406 -1.39406
-0.351528 -1.36142 -1.36142
-0.355846 -1.39509 -1.39509
-0.418144 -1.43045 -1.43045
-0.428048 -1.49963 -1.49963
-0.309616 -1.4974 -1.4974
-0.302269 -1.42813 -1.42813
-0.423098 -1.46485 -1.46485
-0.368787 -1.49835 -1.49835
-0.305942 -1.46258 -1.46258
-0.360162 -1.42913 -1.42913
-0.364476 -1.46355 -1.46355
-0.428048 -1.49963 -1.49963
-0.437936 -1.57031 -1.57031
-0.316964 -1.56817 -1.56817
-0.309616 -1.4974 -1.4974
-0.432994 -1.53478 -1.53478
-0.377405 -1.56908 -1.56908
-0.31329 -1.5326 -1.5326
-0.368787 -1.49835 -1.49835
-0.373097 -1.53353 -1.53353
-0.437936 -1.57031 -1.57031
-0.447809 -1.64248 -1.64248
-0.324314 -1.64044 -1.64044
-0.316964 -1.56817 -1.56817
-0.442875 -1.60621 -1.60621
-0.386016 -1.6413 -1.6413
-0.320639 -1.60412 -1.60412
-0.377405 -1.56908 -1.56908
-0.381712 -1.60501 -1.60501
-0.447809 -1.64248 -1.64248
-0.457667 -1.71614 -1.71614
-0.331665 -1.7142 -1.7142
-0.324314 -1.64044 -1.64044
-0.45274 -1.67912 -1.67912
-0.394621 -1.71501 -1.71501
-0.327989 -1.67714 -1.67714
-0.386016 -1.6413 -1.6413
-0.390319 -1.67797 -1.67797
-0.457667 -1.71614 -1.71614
-0.467511 -1.79127 -1.79127
-0.339018 -1.78943 -1.78943
-0.331665 -1.7142 -1.7142
-0.462591 -1.75352 -1.75352
-0.40322 -1.7902 -1.7902
-0.335341 -1.75163 -1.75163
-0.394621 -1.71501 -1.71501
-0.398921 -1.75242 -1.75242
-0.467511 -1.79127 -1.79127
-0.477342 -1.86787 -1.86787
-0.346374 -1.86613 -1.86613
-0.339018 -1.78943 -1.78943
-0.472428 -1.82939 -1.82939
-0.411813 -1.86685 -1.86685
-0.342696 -1.8276 -1.8276
-0.40322 -1.7902 -1.7902
-0.407517 -1.82834 -1.82834
-0.477342 -1.86787 -1.86787
-0.487159 -1.94593 -1.94593
-0.353734 -1.94429 -1.94429
-0.346374 -1.86613 -1.86613
-0.482252 -1.90672 -1.90672
-0.420401 -1.94496 -1.94496
-0.350054 -1.90503 -1.90503
-0.411813 -1.86685 -1.86685
-0.416108 -1.90572 -1.90572
-0.487159 -1.94593 -1.94593
-0.496964 -2.02543 -2.02543
-0.361098 -2.0239 -2.0239
-0.353734 -1.94429 -1.94429
-0.492063 -1.9855 -1.9855
-0.428986 -2.02451 -2.02451
-0.357415 -1.98391 -1.98391
-0.420401 -1.94496 -1.94496
-0.424694 -1.98455 -1.98455
-0.496964 -2.02543 -2.02543
-0.506758 -2.10637 -2.10637
-0.368466 -2.10494 -2.10494
-0.361098 -2.0239 -2.0239
-0.501862 -2.06572 -2.06572
-0.437566 -2.1055 -2.1055
-0.364781 -2.06424 -2.06424
-0.428986 -2.02451 -2.02451
-0.433277 -2.06483 -2.06483
-0.506758 -2.10637 -2.10637
-0.516539 -2.18874 -2.18874
-0.375839 -2.18741 -2.18741
-0.368466 -2.10494 -2.10494
-0.51165 -2.14738 -2.14738
-0.446144 -2.18792 -2.18792
-0.372152 -2.146 -2.146
-0.437566 -2.1055 -2.1055
-0.441855 -2.14654 -2.14654
-0.516539 -2.18874 -2.18874
-0.52631 -2.27253 -2.27253
-0.383218 -2.2713 -2.2713
-0.375839 -2.18741 -2.18741
-0.521426 -2.23046 -2.23046
-0.454719 -2.27176 -2.27176
-0.379528 -2.22918 -2.22918
-0.446144 -2.18792 -2.18792
-0.450431 -2.22967 -2.22967
-0.52631 -2.27253 -2.27253
-0.53607 -2.35772 -2.35772
-0.390602 -2.3566 -2.3566
-0.383218 -2.2713 -2.2713
-0.531192 -2.31495 -2.31495
-0.463291 -2.35701 -2.35701
-0.386909 -2.31377 -2.31377
-0.454719 -2.27176 -2.27176
-0.459005 -2.31421 -2.31421
-0.53607 -2.35772 -2.35772
-0.545821 -2.44431 -2.44431
-0.397993 -2.4433 -2.4433
-0.390602 -2.3566 -2.3566
-0.540947 -2.40084 -2.40084
-0.471862 -2.44366 -2.44366
-0.394297 -2.39977 -2.39977
-0.463291 -2.35701 -2.35701
-0.467577 -2.40016 -2.40016
-0.545821 -2.44431 -2.44431
-0.555562 -2.5323 -2.5323
-0.405391 -2.53139 -2.53139
-0.397993 -2.4433 -2.4433
-0.550692 -2.48813 -2.48813
-0.480431 -2.53169 -2.53169
-0.401692 -2.48717 -2.48717
-0.471862 -2.44366 -2.44366
-0.476147 -2.4875 -2.4875
-0.555562 -2.5323 -2.5323
-0.565293 -2.62166 -2.62166
-0.412797 -2.62085 -2.62085
-0.405391 -2.53139 -2.53139
-0.560429 -2.57681 -2.57681
-0.489 -2.62111 -2.62111
-0.409093 -2.57595 -2.57595
-0.480431 -2.53169 -2.53169
-0.484715 -2.57623 -2.57623
-0.565293 -2.62166 -2.62166
-0.575016 -2.71239 -2.71239
-0.42021 -2.71169 -2.71169
-0.412797 -2.62085 -2.62085
-0.570156 -2.66685 -2.66685
-0.497568 -2.7119 -2.7119
-0.416502 -2.6661 -2.6661
-0.489 -2.62111 -2.62111
-0.493284 -2.66633 -2.66633
-0.575016 -2.71239 -2.71239
-0.584731 -2.80448 -2.80448
-0.427631 -2.80389 -2.80389
-0.42021 -2.71169 -2.71169
-0.579875 -2.75827 -2.75827
-0.506135 -2.80404 -2.80404
-0.423919 -2.75762 -2.75762
-0.497568 -2.7119 -2.7119
-0.501851 -2.7578 -2.7578
-0.584731 -2.80448 -2.80448
-0.594438 -2.89793 -2.89793
-0.43506 -2.89745 -2.89745
-0.427631 -2.80389 -2.80389
-0.589585 -2.85104 -2.85104
-0.514703 -2.89754 -2.89754
-0.431345 -2.8505 -2.8505
-0.506135 -2.80404 -2.80404
-0.510419 -2.85062 -2.85062
-0.594438 -2.89793 -2.89793
-0.604137 -2.99271 -2.99271
-0.442499 -2.99234 -2.99234
-0.43506 -2.89745 -2.89745
-0.599288 -2.94515 -2.94515
-0.523272 -2.99238 -2.99238
-0.438779 -2.94472 -2.94472
-0.514703 -2.89754 -2.89754
-0.518988 -2.9448 -2.9448
-0.604137 -2.99271 -2.99271
-0.613829 -3.08882 -3.08882
-0.449946 -3.08856 -3.08856
-0.442499 -2.99234 -2.99234
-0.608984 -3.0406 -3.0406
-0.531842 -3.08855 -3.08855
-0.446221 -3.04029 -3.04029
-0.523272 -2.99238 -2.99238
-0.527557 -3.0403 -3.0403
-0.613829 -3.08882 -3.08882
-0.623514 -3.18626 -3.18626
-0.457404 -3.18611 -3.18611
-0.449946 -3.08856 -3.08856
-0.618672 -3.13738 -3.13738
-0.540413 -3.18605 -3.18605
-0.453674 -3.13717 -3.13717
-0.531842 -3.08855 -3.08855
-0.536127 -3.13714 -3.13714
-0.623514 -3.18626 -3.18626
-0.633192 -3.28501 -3.28501
-0.464871 -3.28497 -3.28497
-0.457404 -3.18611 -3.18611
-0.628354 -3.23547 -3.23547
-0.548986 -3.28485 -3.28485
-0.461136 -3.23538 -3.23538
-0.540413 -3.18605 -3.18605
-0.544699 -3.23529 -3.23529
-0.633192 -3.28501 -3.28501
-0.642864 -3.38506 -3.38506
-0.472348 -3.38514 -3.38514
-0.464871 -3.28497 -3.28497
-0.638029 -3.33487 -3.33487
-0.55756 -3.38496 -3.38496
-0.468608 -3.33489 -3.33489
-0.548986 -3.28485 -3.28485
-0.553273 -3.33474 -3.33474
-0.642864 -3.38506 -3.38506
-0.65253 -3.48641 -3.48641
-0.479835 -3.48659 -3.48659
-0.472348 -3.38514 -3.38514
-0.647698 -3.43557 -3.43557
-0.566137 -3.48636 -3.48636
-0.47609 -3.4357 -3.4357
-0.55756 -3.38496 -3.38496
-0.561848 -3.4355 -3.4355
-0.65253 -3.48641 -3.48641
-0.662191 -3.58904 -3.58904
-0.487333 -3.58933 -3.58933
-0.479835 -3.48659 -3.48659
-0.657361 -3.53756 -3.53756
-0.574716 -3.58905 -3.58905
-0.483583 -3.5378 -3.5378
-0.566137 -3.48636 -3.48636
-0.570426 -3.53755 -3.53755
-0.662191 -3.58904 -3.58904
-0.671846 -3.69294 -3.69294
-0.494842 -3.69335 -3.69335
-0.487333 -3.58933 -3.58933
-0.667019 -3.64083 -3.64083
-0.583298 -3.69301 -3.69301
-0.491087 -3.64118 -3.64118
-0.574716 -3.58905 -3.58905
-0.579007 -3.64087 -3.64087
-0.671846 -3.69294 -3.69294
-0.681495 -3.7981 -3.7981
-0.502363 -3.79863 -3.79863
-0.494842 -3.69335 -3.69335
-0.676671 -3.74536 -3.74536
-0.591883 -3.79823 -3.79823
-0.498601 -3.74583 -3.74583
-0.583298 -3.69301 -3.69301
-0.58759 -3.74546 -3.74546
-0.681495 -3.7981 -3.7981
-0.69114 -3.90453 -3.90453
-0.509895 -3.90516 -3.90516
-0.502363 -3.79863 -3.79863
-0.686318 -3.85116 -3.85116
-0.600471 -3.90471 -3.90471
-0.506127 -3.85174 -3.85174
-0.591883 -3.79823 -3.79823
-0.596177 -3.85132 -3.85132
-0.69114 -3.90453 -3.90453
-0.70078 -4.01219 -4.01219
-0.517438 -4.01294 -4.01294
-0.509895 -3.90516 -3.90516
-0.695961 -3.9582 -3.9582
-0.609063 -4.01244 -4.01244
-0.513665 -3.9589 -3.9589
-0.600471 -3.90471 -3.90471
-0.604767 -3.95842 -3.95842
-0.70078 -4.01219 -4.01219
-0.710415 -4.12109 -4.12109
-0.524993 -4.12196 -4.12196
-0.517438 -4.01294 -4.01294
-0.705598 -4.06649 -4.06649
-0.617658 -4.1214 -4.1214
-0.521214 -4.0673 -4.0673
-0.609063 -4.01244 -4.01244
-0.61336 -4.06676 -4.06676
-0.710415 -4.12109 -4.12109
-0.720046 -4.23122 -4.23122
-0.53256 -4.2322 -4.2322
-0.524993 -4.12196 -4.12196
-0.715231 -4.176 -4.176
-0.626258 -4.23158 -4.23158
-0.528775 -4.17693 -4.17693
-0.617658 -4.1214 -4.1214
-0.621957 -4.17634 -4.17634
-0.720046 -4.23122 -4.23122
-0.729673 -4.34256 -4.34256
-0.54014 -4.34366 -4.34366
-0.53256 -4.2322 -4.2322
-0.72486 -4.28674 -4.28674
-0.634861 -4.34298 -4.34298
-0.536349 -4.28778 -4.28778
-0.626258 -4.23158 -4.23158
-0.630559 -4.28713 -4.28713
-0.729673 -4.34256 -4.34256
-0.739296 -4.45511 -4.45511
-0.547732 -4.45632 -4.45632
-0.54014 -4.34366 -4.34366
-0.734485 -4.39869 -4.39869
-0.643468 -4.45559 -4.45559
-0.543934 -4.39984 -4.39984
-0.634861 -4.34298 -4.34298
-0.639164 -4.39914 -4.39914
-0.739296 -4.45511 -4.45511
-0.748915 -4.56886 -4.56886
-0.555336 -4.57018 -4.57018
-0.547732 -4.45632 -4.45632
-0.744106 -4.51184 -4.51184
-0.652079 -4.5694 -4.5694
-0.551532 -4.5131 -4.5131
-0.643468 -4.45559 -4.45559
-0.647773 -4.51234 -4.51234
-0.748915 -4.56886 -4.56886
-0.75853 -4.68379 -4.68379
-0.562953 -4.68523 -4.68523
-0.555336 -4.57018 -4.57018
-0.753723 -4.62618 -4.62618
-0.660695 -4.68439 -4.68439
-0.559143 -4.62756 -4.62756
-0.652079 -4.5694 -4.5694
-0.656387 -4.62674 -4.62674
-0.75853 -4.68379 -4.68379
-0.768141 -4.7999 -4.7999
-0.570583 -4.80146 -4.80146
-0.562953 -4.68523 -4.68523
-0.763336 -4.7417 -4.7417
-0.669316 -4.80056 -4.80056
-0.566766 -4.7432 -4.7432
-0.660695 -4.68439 -4.68439
-0.665005 -4.74233 -4.74233
-0.768141 -4.7999 -4.7999
-0.777749 -4.91718 -4.91718
-0.578225 -4.91886 -4.91886
-0.570583 -4.80146 -4.80146