<?xml version="1.0"?>
<VTKFile type="UnstructuredGrid">
  <UnstructuredGrid>
  <Piece NumberOfPoints="12411"  NumberOfCells="1379">
    <Points>
      <DataArray type="Float64" NumberOfComponents="3" format="ascii">
0 0 0
2.52345 -0.00726104 0
2.52935 4.28327 0
0 4.28571 0
1.26108 -0.00453302 0
2.52706 2.13847 0
1.2648 4.28484 0
0 2.14286 0
1.26378 2.14092 0
2.52345 -0.00726104 0
5.04888 -0.0125917 0
5.05798 4.27865 0
2.52935 4.28327 0
3.78615 -0.00982561 0
5.05365 2.13331 0
3.79371 4.28118 0
2.52706 2.13847 0
3.79032 2.13597 0
5.04888 -0.0125917 0
7.57418 -0.0190248 0
7.58652 4.2723 0
5.05798 4.27865 0
6.31155 -0.0156192 0
7.58042 2.12685 0
6.32224 4.2757 0
5.05365 2.13331 0
6.31702 2.13029 0
7.57418 -0.0190248 0
10.0994 -0.0273102 0
10.1151 4.26402 0
7.58652 4.2723 0
8.83679 -0.0229164 0
10.1073 2.11858 0
8.8508 4.26841 0
7.58042 2.12685 0
8.84384 2.12296 0
10.0994 -0.0273102 0
12.6245 -0.0376184 0
12.6438 4.25368 0
10.1151 4.26402 0
11.3619 -0.0322045 0
12.6342 2.10825 0
11.3794 4.25912 0
10.1073 2.11858 0
11.3707 2.11368 0
12.6245 -0.0376184 0
15.1496 -0.050065 0
15.1725 4.2412 0
12.6438 4.25368 0
13.8871 -0.0435718 0
15.1611 2.0958 0
13.9081 4.24771 0
12.6342 2.10825 0
13.8976 2.10229 0
15.1496 -0.050065 0
17.6747 -0.0646651 0
17.7012 4.22655 0
15.1725 4.2412 0
16.4122 -0.0570952 0
17.688 2.08117 0
16.4368 4.23415 0
15.1611 2.0958 0
16.4245 2.08875 0
17.6747 -0.0646651 0
20.1999 -0.0814324 0
20.23 4.20973 0
17.7012 4.22655 0
18.9373 -0.072778 0
20.215 2.06438 0
18.9656 4.21841 0
17.688 2.08117 0
18.9515 2.07305 0
20.1999 -0.0814324 0
22.7251 -0.100358 0
22.7589 4.19075 0
20.23 4.20973 0
21.4625 -0.090626 0
22.742 2.04543 0
21.4944 4.20051 0
20.215 2.06438 0
21.4785 2.05517 0
22.7251 -0.100358 0
25.2503 -0.121434 0
25.2877 4.16961 0
22.7589 4.19075 0
23.9877 -0.110628 0
25.2691 2.02432 0
24.0233 4.18045 0
22.742 2.04543 0
24.0055 2.03514 0
25.2503 -0.121434 0
27.7756 -0.144649 0
27.8166 4.14634 0
25.2877 4.16961 0
26.5129 -0.132775 0
27.7962 2.00107 0
26.5522 4.15824 0
25.2691 2.02432 0
26.5326 2.01296 0
27.7756 -0.144649 0
30.3009 -0.16999 0
30.3456 4.12093 0
27.8166 4.14634 0
29.0382 -0.157054 0
30.3233 1.9757 0
29.0811 4.1339 0
27.7962 2.00107 0
29.0597 1.98865 0
30.3009 -0.16999 0
32.8263 -0.197446 0
32.8745 4.0934 0
30.3456 4.12093 0
31.5636 -0.183455 0
32.8504 1.94821 0
31.61 4.10743 0
30.3233 1.9757 0
31.5869 1.96222 0
32.8263 -0.197446 0
35.3517 -0.227006 0
35.4035 4.06377 0
32.8745 4.0934 0
34.089 -0.211964 0
35.3776 1.91861 0
34.139 4.07885 0
32.8504 1.94821 0
34.114 1.93367 0
35.3517 -0.227006 0
37.8772 -0.258657 0
37.9325 4.03205 0
35.4035 4.06377 0
36.6144 -0.24257 0
37.9049 1.88692 0
36.668 4.04817 0
35.3776 1.91861 0
36.6413 1.90303 0
37.8772 -0.258657 0
40.4027 -0.292388 0
40.4615 3.99824 0
37.9325 4.03205 0
39.1399 -0.275263 0
40.4321 1.85315 0
39.197 4.01541 0
37.9049 1.88692 0
39.1685 1.8703 0
40.4027 -0.292388 0
42.9282 -0.328187 0
42.9906 3.96236 0
40.4615 3.99824 0
41.6654 -0.310029 0
42.9594 1.81731 0
41.726 3.98056 0
40.4321 1.85315 0
41.6958 1.83549 0
42.9282 -0.328187 0
45.4538 -0.366044 0
45.5196 3.92443 0
42.9906 3.96236 0
44.191 -0.346859 0
45.4868 1.77941 0
44.2551 3.94365 0
42.9594 1.81731 0
44.2231 1.79862 0
45.4538 -0.366044 0
47.9794 -0.405946 0
48.0487 3.88444 0
45.5196 3.92443 0
46.7166 -0.38574 0
48.0141 1.73947 0
46.7842 3.90469 0
45.4868 1.77941 0
46.7504 1.75969 0
47.9794 -0.405946 0
50.5051 -0.447883 0
50.5778 3.84242 0
48.0487 3.88444 0
49.2422 -0.426661 0
50.5415 1.69748 0
49.3133 3.86368 0
48.0141 1.73947 0
49.2778 1.71873 0
50.5051 -0.447883 0
53.0307 -0.491843 0
53.1069 3.79837 0
50.5778 3.84242 0
51.7679 -0.469611 0
53.0689 1.65348 0
51.8424 3.82064 0
50.5415 1.69748 0
51.8052 1.67573 0
53.0307 -0.491843 0
55.5565 -0.537815 0
55.6361 3.7523 0
53.1069 3.79837 0
54.2936 -0.514579 0
55.5963 1.60746 0
54.3715 3.77559 0
53.0689 1.65348 0
54.3326 1.63072 0
55.5565 -0.537815 0
58.0822 -0.585787 0
58.1652 3.70424 0
55.6361 3.7523 0
56.8193 -0.561552 0
58.1238 1.55944 0
56.9006 3.72852 0
55.5963 1.60746 0
56.86 1.5837 0
58.0822 -0.585787 0
60.608 -0.635748 0
60.6943 3.65418 0
58.1652 3.70424 0
59.3451 -0.61052 0
60.6512 1.50943 0
59.4298 3.67946 0
58.1238 1.55944 0
59.3875 1.53468 0
60.608 -0.635748 0
63.1338 -0.687687 0
63.2235 3.60214 0
60.6943 3.65418 0
61.8709 -0.661471 0
63.1787 1.45744 0
61.9589 3.62841 0
60.6512 1.50943 0
61.915 1.48368 0
63.1338 -0.687687 0
65.6596 -0.741592 0
65.7527 3.54814 0
63.2235 3.60214 0
64.3967 -0.714394 0
65.7062 1.40348 0
64.4881 3.57539 0
63.1787 1.45744 0
64.4425 1.43071 0
65.6596 -0.741592 0
68.1855 -0.797452 0
68.2818 3.49218 0
65.7527 3.54814 0
66.9226 -0.769278 0
68.2337 1.34757 0
67.0172 3.5204 0
65.7062 1.40348 0
66.97 1.37577 0
68.1855 -0.797452 0
70.7114 -0.855255 0
70.811 3.43427 0
68.2818 3.49218 0
69.4485 -0.826111 0
70.7613 1.28971 0
69.5464 3.46347 0
68.2337 1.34757 0
69.4975 1.31889 0
70.7114 -0.855255 0
73.2373 -0.91499 0
73.3402 3.37443 0
70.811 3.43427 0
71.9744 -0.884882 0
73.2888 1.22992 0
72.0756 3.40459 0
70.7613 1.28971 0
72.025 1.26006 0
73.2373 -0.91499 0
75.7632 -0.976646 0
75.8694 3.31266 0
73.3402 3.37443 0
74.5003 -0.945579 0
75.8164 1.16821 0
74.6048 3.34378 0
73.2888 1.22992 0
74.5526 1.19931 0
75.7632 -0.976646 0
78.2892 -1.04021 0
78.3985 3.24899 0
75.8694 3.31266 0
77.0262 -1.00819 0
78.3439 1.10459 0
77.134 3.28106 0
75.8164 1.16821 0
77.0801 1.13664 0
78.2892 -1.04021 0
80.8152 -1.10568 0
80.9277 3.18341 0
78.3985 3.24899 0
79.5522 -1.07271 0
80.8715 1.03907 0
79.6631 3.21643 0
78.3439 1.10459 0
79.6077 1.07207 0
80.8152 -1.10568 0
83.3412 -1.17303 0
83.4569 3.11595 0
80.9277 3.18341 0
82.0782 -1.13912 0
83.3991 0.971662 0
82.1923 3.14991 0
80.8715 1.03907 0
82.1353 1.0056 0
83.3412 -1.17303 0
85.8672 -1.24225 0
85.9861 3.0466 0
83.4569 3.11595 0
84.6042 -1.2074 0
85.9267 0.902377 0
84.7215 3.08151 0
83.3991 0.971662 0
84.6629 0.937253 0
85.8672 -1.24225 0
88.3932 -1.31334 0
88.5153 2.9754 0
85.9861 3.0466 0
87.1302 -1.27756 0
88.4543 0.831228 0
87.2507 3.01123 0
85.9267 0.902377 0
87.1905 0.867035 0
88.3932 -1.31334 0
90.9193 -1.38628 0
91.0445 2.90234 0
88.5153 2.9754 0
89.6562 -1.34958 0
90.9819 0.758225 0
89.7799 2.9391 0
88.4543 0.831228 0
89.7181 0.794958 0
90.9193 -1.38628 0
93.4453 -1.46106 0
93.5736 2.82743 0
91.0445 2.90234 0
92.1823 -1.42344 0
93.5095 0.683381 0
92.309 2.86511 0
90.9819 0.758225 0
92.2457 0.721033 0
93.4453 -1.46106 0
95.9714 -1.53768 0
96.1028 2.7507 0
93.5736 2.82743 0
94.7083 -1.49914 0
96.0371 0.606706 0
94.8382 2.78929 0
93.5095 0.683381 0
94.7733 0.645272 0
95.9714 -1.53768 0
98.4975 -1.61611 0
98.6319 2.67214 0
96.1028 2.7507 0
97.2344 -1.57666 0
98.5648 0.528212 0
97.3674 2.71165 0
96.0371 0.606706 0
97.3009 0.567686 0
98.4975 -1.61611 0
101.024 -1.69634 0
101.161 2.59178 0
98.6319 2.67214 0
99.7605 -1.656 0
101.092 0.44791 0
99.8965 2.63219 0
98.5648 0.528212 0
99.8286 0.488287 0
101.024 -1.69634 0
103.55 -1.77838 0
103.69 2.50962 0
101.161 2.59178 0
102.287 -1.73714 0
103.62 0.365813 0
102.426 2.55092 0
101.092 0.44791 0
102.356 0.407085 0
103.55 -1.77838 0
106.076 -1.86219 0
106.219 2.42567 0
103.69 2.50962 0
104.813 -1.82006 0
106.148 0.28193 0
104.955 2.46787 0
103.62 0.365813 0
104.884 0.324094 0
106.076 -1.86219 0
108.602 -1.94778 0
108.748 2.33995 0
106.219 2.42567 0
107.339 -1.90477 0
108.675 0.196274 0
107.484 2.38303 0
106.148 0.28193 0
107.411 0.239323 0
108.602 -1.94778 0
111.128 -2.03513 0
111.278 2.25247 0
108.748 2.33995 0
109.865 -1.99124 0
111.203 0.108855 0
110.013 2.29643 0
108.675 0.196274 0
109.939 0.152784 0
111.128 -2.03513 0
113.654 -2.12423 0
113.807 2.16323 0
111.278 2.25247 0
112.391 -2.07947 0
113.73 0.0196866 0
112.542 2.20807 0
111.203 0.108855 0
112.467 0.0644891 0
113.654 -2.12423 0
116.18 -2.21507 0
116.336 2.07226 0
113.807 2.16323 0
114.917 -2.16944 0
116.258 -0.0712214 0
115.071 2.11796 0
113.73 0.0196866 0
114.994 -0.0255507 0
116.18 -2.21507 0
118.706 -2.30764 0
118.865 1.97956 0
116.336 2.07226 0
117.443 -2.26114 0
118.786 -0.163857 0
117.6 2.02612 0
116.258 -0.0712214 0
117.522 -0.117324 0
118.706 -2.30764 0
121.233 -2.40192 0
121.394 1.88514 0
118.865 1.97956 0
119.97 -2.35457 0
121.313 -0.258209 0
120.129 1.93256 0
118.786 -0.163857 0
120.05 -0.210819 0
121.233 -2.40192 0
123.759 -2.49791 0
123.923 1.78901 0
121.394 1.88514 0
122.496 -2.4497 0
123.841 -0.354266 0
122.658 1.83729 0
121.313 -0.258209 0
122.577 -0.306025 0
123.759 -2.49791 0
126.285 -2.59559 0
126.452 1.69119 0
123.923 1.78901 0
125.022 -2.54654 0
126.369 -0.452017 0
125.187 1.74031 0
123.841 -0.354266 0
125.105 -0.402931 0
126.285 -2.59559 0
128.811 -2.69495 0
128.981 1.59169 0
126.452 1.69119 0
127.548 -2.64506 0
128.896 -0.55145 0
127.716 1.64165 0
126.369 -0.452017 0
127.632 -0.501524 0
128.811 -2.69495 0
131.337 -2.79598 0
131.51 1.49052 0
128.981 1.59169 0
130.074 -2.74526 0
131.424 -0.652553 0
130.245 1.54131 0
128.896 -0.55145 0
130.16 -0.601793 0
131.337 -2.79598 0
133.863 -2.89867 0
134.039 1.38769 0
131.51 1.49052 0
132.6 -2.84712 0
133.951 -0.755316 0
132.774 1.43931 0
131.424 -0.652553 0
132.687 -0.703728 0
133.863 -2.89867 0
136.39 -3.00301 0
136.568 1.2832 0
134.039 1.38769 0
135.127 -2.95063 0
136.479 -0.859726 0
135.303 1.33565 0
133.951 -0.755316 0
135.215 -0.807316 0
136.39 -3.00301 0
138.916 -3.10898 0
139.097 1.17709 0
136.568 1.2832 0
137.653 -3.05579 0
139.006 -0.965773 0
137.832 1.23035 0
136.479 -0.859726 0
137.743 -0.912546 0
138.916 -3.10898 0
141.442 -3.21658 0
141.626 1.06934 0
139.097 1.17709 0
140.179 -3.16258 0
141.534 -1.07345 0
140.361 1.12342 0
139.006 -0.965773 0
140.27 -1.01941 0
141.442 -3.21658 0
143.968 -3.32579 0
144.155 0.959985 0
141.626 1.06934 0
142.705 -3.27098 0
144.061 -1.18273 0
142.89 1.01486 0
141.534 -1.07345 0
142.798 -1.12789 0
143.968 -3.32579 0
146.494 -3.4366 0
146.683 0.849024 0
144.155 0.959985 0
145.231 -3.38099 0
146.589 -1.29362 0
145.419 0.904704 0
144.061 -1.18273 0
145.325 -1.23798 0
146.494 -3.4366 0
149.021 -3.549 0
149.212 0.736473 0
146.683 0.849024 0
147.757 -3.4926 0
149.116 -1.4061 0
[...]
    <PointData>
      <DataArray type="Float64" NumberOfComponents="3" Name="Displacement" format="ascii">
0 0 0
-0.0146175 -0.00726104 -0.00726104
-0.00872077 -0.00244364 -0.00244364
0 0 0
-0.00795775 -0.00453302 -0.00453302
-0.0110128 -0.00438487 -0.00438487
-0.00423092 -0.000873585 -0.000873585
0 0 0
-0.00525118 -0.00193434 -0.00193434
-0.0146175 -0.00726104 -0.00726104
-0.0272637 -0.0125917 -0.0125917
-0.0181664 -0.00706371 -0.00706371
-0.00872077 -0.00244364 -0.00244364
-0.0209578 -0.00982561 -0.00982561
-0.0224879 -0.00954737 -0.00954737
-0.0133985 -0.00453046 -0.00453046
-0.0110128 -0.00438487 -0.00438487
-0.0167828 -0.00688901 -0.00688901
-0.0272637 -0.0125917 -0.0125917
-0.0400298 -0.0190248 -0.0190248
-0.0276982 -0.0134143 -0.0134143
-0.0181664 -0.00706371 -0.00706371
-0.0336234 -0.0156192 -0.0156192
-0.0337973 -0.0160062 -0.0160062
-0.0229377 -0.010015 -0.010015
-0.0224879 -0.00954737 -0.00954737
-0.0281568 -0.0125656 -0.0125656
-0.0400298 -0.0190248 -0.0190248
-0.0529067 -0.0273102 -0.0273102
-0.0371859 -0.021691 -0.021691
-0.0276982 -0.0134143 -0.0134143
-0.0464582 -0.0229164 -0.0229164
-0.0450148 -0.0242771 -0.0242771
-0.0324496 -0.0173005 -0.0173005
-0.0337973 -0.0160062 -0.0160062
-0.0394134 -0.019898 -0.019898
-0.0529067 -0.0273102 -0.0273102
-0.0658585 -0.0376184 -0.0376184
-0.0465991 -0.0320318 -0.0320318
-0.0371859 -0.021691 -0.021691
-0.0593769 -0.0322045 -0.0322045
-0.0562006 -0.0346034 -0.0346034
-0.0419011 -0.0265976 -0.0265976
-0.0450148 -0.0242771 -0.0242771
-0.0506107 -0.0291758 -0.0291758
-0.0658585 -0.0376184 -0.0376184
-0.0788221 -0.050065 -0.050065
-0.0559586 -0.0445157 -0.0445157
-0.0465991 -0.0320318 -0.0320318
-0.0723409 -0.0435718 -0.0435718
-0.0673568 -0.0470619 -0.0470619
-0.0512849 -0.0380036 -0.0380036
-0.0562006 -0.0346034 -0.0346034
-0.0617825 -0.0405637 -0.0405637
-0.0788221 -0.050065 -0.050065
-0.0917764 -0.0646651 -0.0646651
-0.0652697 -0.0591644 -0.0591644
-0.0559586 -0.0445157 -0.0445157
-0.0853018 -0.0570952 -0.0570952
-0.078484 -0.0616851 -0.0616851
-0.0606197 -0.0515689 -0.0515689
-0.0673568 -0.0470619 -0.0470619
-0.0729243 -0.0541022 -0.0541022
-0.0917764 -0.0646651 -0.0646651
-0.104699 -0.0814324 -0.0814324
-0.0745414 -0.0759834 -0.0759834
-0.0652697 -0.0591644 -0.0591644
-0.0982424 -0.072778 -0.072778
-0.0895767 -0.0784767 -0.0784767
-0.0699102 -0.0673028 -0.0673028
-0.078484 -0.0616851 -0.0616851
-0.0840349 -0.0698101 -0.0698101
-0.104699 -0.0814324 -0.0814324
-0.117582 -0.100358 -0.100358
-0.0837769 -0.0949656 -0.0949656
-0.0745414 -0.0759834 -0.0759834
-0.111146 -0.090626 -0.090626
-0.100633 -0.0974309 -0.0974309
-0.0791635 -0.0852047 -0.0852047
-0.0895767 -0.0784767 -0.0784767
-0.0951095 -0.087684 -0.087684
-0.117582 -0.100358 -0.100358
-0.130419 -0.121434 -0.121434
-0.0929797 -0.116101 -0.116101
-0.0837769 -0.0949656 -0.0949656
-0.124006 -0.110628 -0.110628
-0.111651 -0.118537 -0.118537
-0.0883822 -0.105265 -0.105265
-0.100633 -0.0974309 -0.0974309
-0.106147 -0.107716 -0.107716
-0.130419 -0.121434 -0.121434
-0.143209 -0.144649 -0.144649
-0.102152 -0.139379 -0.139379
-0.0929797 -0.116101 -0.116101
-0.13682 -0.132775 -0.132775
-0.122631 -0.141784 -0.141784
-0.0975694 -0.127473 -0.127473
-0.111651 -0.118537 -0.118537
-0.117146 -0.129894 -0.129894
-0.143209 -0.144649 -0.144649
-0.155953 -0.16999 -0.16999
-0.111295 -0.164785 -0.164785
-0.102152 -0.139379 -0.139379
-0.149587 -0.157054 -0.157054
-0.133574 -0.167159 -0.167159
-0.106727 -0.151817 -0.151817
-0.122631 -0.141784 -0.141784
-0.128107 -0.154206 -0.154206
-0.155953 -0.16999 -0.16999
-0.16865 -0.197446 -0.197446
-0.120412 -0.19231 -0.19231
-0.111295 -0.164785 -0.164785
-0.162307 -0.183455 -0.183455
-0.144481 -0.194651 -0.194651
-0.115857 -0.178284 -0.178284
-0.133574 -0.167159 -0.167159
-0.139032 -0.180641 -0.180641
-0.16865 -0.197446 -0.197446
-0.181303 -0.227006 -0.227006
-0.129503 -0.22194 -0.22194
-0.120412 -0.19231 -0.19231
-0.174982 -0.211964 -0.211964
-0.155352 -0.224247 -0.224247
-0.12496 -0.206863 -0.206863
-0.144481 -0.194651 -0.194651
-0.149921 -0.209187 -0.209187
-0.181303 -0.227006 -0.227006
-0.193912 -0.258657 -0.258657
-0.138571 -0.253665 -0.253665
-0.129503 -0.22194 -0.22194
-0.187613 -0.24257 -0.24257
-0.166191 -0.255936 -0.255936
-0.13404 -0.237542 -0.237542
-0.155352 -0.224247 -0.224247
-0.160776 -0.239831 -0.239831
-0.193912 -0.258657 -0.258657
-0.20648 -0.292388 -0.292388
-0.147616 -0.287472 -0.287472
-0.138571 -0.253665 -0.253665
-0.200201 -0.275263 -0.275263
-0.176997 -0.289707 -0.289707
-0.143096 -0.270309 -0.270309
-0.166191 -0.255936 -0.255936
-0.171598 -0.272562 -0.272562
-0.20648 -0.292388 -0.292388
-0.219008 -0.328187 -0.328187
-0.156641 -0.323351 -0.323351
-0.147616 -0.287472 -0.287472
-0.212749 -0.310029 -0.310029
-0.187774 -0.325547 -0.325547
-0.152131 -0.305153 -0.305153
-0.176997 -0.289707 -0.289707
-0.182389 -0.307369 -0.307369
-0.219008 -0.328187 -0.328187
-0.231497 -0.366044 -0.366044
-0.165648 -0.361289 -0.361289
-0.156641 -0.323351 -0.323351
-0.225257 -0.346859 -0.346859
-0.198521 -0.363446 -0.363446
-0.161147 -0.342063 -0.342063
-0.187774 -0.325547 -0.325547
-0.193151 -0.34424 -0.34424
-0.231497 -0.366044 -0.366044
-0.24395 -0.405946 -0.405946
-0.174637 -0.401276 -0.401276
-0.165648 -0.361289 -0.361289
-0.237728 -0.38574 -0.38574
-0.209242 -0.403391 -0.403391
-0.170144 -0.381027 -0.381027
-0.198521 -0.363446 -0.363446
-0.203885 -0.383163 -0.383163
-0.24395 -0.405946 -0.405946
-0.256366 -0.447883 -0.447883
-0.18361 -0.443299 -0.443299
-0.174637 -0.401276 -0.401276
-0.250162 -0.426661 -0.426661
-0.219936 -0.445373 -0.445373
-0.179125 -0.422033 -0.422033
-0.209242 -0.403391 -0.403391
-0.214592 -0.424128 -0.424128
-0.256366 -0.447883 -0.447883
-0.268749 -0.491843 -0.491843
-0.192568 -0.487348 -0.487348
-0.18361 -0.443299 -0.443299
-0.262562 -0.469611 -0.469611
-0.230607 -0.489379 -0.489379
-0.188091 -0.465071 -0.465071
-0.219936 -0.445373 -0.445373
-0.225275 -0.467124 -0.467124
-0.268749 -0.491843 -0.491843
-0.281099 -0.537815 -0.537815
-0.201513 -0.533411 -0.533411
-0.192568 -0.487348 -0.487348
-0.274928 -0.514579 -0.514579
-0.241254 -0.535397 -0.535397
-0.197042 -0.510128 -0.510128
-0.230607 -0.489379 -0.489379
-0.235933 -0.512137 -0.512137
-0.281099 -0.537815 -0.537815
-0.293418 -0.585787 -0.585787
-0.210447 -0.581477 -0.581477
-0.201513 -0.533411 -0.533411
-0.287263 -0.561552 -0.561552
-0.251881 -0.583418 -0.583418
-0.205982 -0.557194 -0.557194
-0.241254 -0.535397 -0.535397
-0.24657 -0.559158 -0.559158
-0.293418 -0.585787 -0.585787
-0.305707 -0.635748 -0.635748
-0.21937 -0.631534 -0.631534
-0.210447 -0.581477 -0.581477
-0.299566 -0.61052 -0.61052
-0.262487 -0.633428 -0.633428
-0.21491 -0.606257 -0.606257
-0.251881 -0.583418 -0.583418
-0.257186 -0.608175 -0.608175
-0.305707 -0.635748 -0.635748
-0.317968 -0.687687 -0.687687
-0.228285 -0.68357 -0.68357
-0.21937 -0.631534 -0.631534
-0.311841 -0.661471 -0.661471
-0.273074 -0.685417 -0.685417
-0.223829 -0.657305 -0.657305
-0.262487 -0.633428 -0.633428
-0.267783 -0.659176 -0.659176
-0.317968 -0.687687 -0.687687
-0.330201 -0.741592 -0.741592
-0.237192 -0.737576 -0.737576
-0.228285 -0.68357 -0.68357
-0.324088 -0.714394 -0.714394
-0.283644 -0.739373 -0.739373
-0.232739 -0.710328 -0.710328
-0.273074 -0.685417 -0.685417
-0.278361 -0.71215 -0.71215
-0.330201 -0.741592 -0.741592
-0.342409 -0.797452 -0.797452
-0.246092 -0.793538 -0.793538
-0.237192 -0.737576 -0.737576
-0.336308 -0.769278 -0.769278
-0.294198 -0.795286 -0.795286
-0.241642 -0.765313 -0.765313
-0.283644 -0.739373 -0.739373
-0.288923 -0.767086 -0.767086
-0.342409 -0.797452 -0.797452
-0.354591 -0.855255 -0.855255
-0.254987 -0.851446 -0.851446
-0.246092 -0.793538 -0.793538
-0.348503 -0.826111 -0.826111
-0.304736 -0.853142 -0.853142
-0.25054 -0.822249 -0.822249
-0.294198 -0.795286 -0.795286
-0.299469 -0.823972 -0.823972
-0.354591 -0.855255 -0.855255
-0.36675 -0.91499 -0.91499
-0.263878 -0.911288 -0.911288
-0.254987 -0.851446 -0.851446
-0.360674 -0.884882 -0.884882
-0.315262 -0.912932 -0.912932
-0.259433 -0.881126 -0.881126
-0.304736 -0.853142 -0.853142
-0.310001 -0.882796 -0.882796
-0.36675 -0.91499 -0.91499
-0.378887 -0.976646 -0.976646
-0.272767 -0.973052 -0.973052
-0.263878 -0.911288 -0.911288
-0.372822 -0.945579 -0.945579
-0.325774 -0.974644 -0.974644
-0.268323 -0.94193 -0.94193
-0.315262 -0.912932 -0.912932
-0.320519 -0.943549 -0.943549
-0.378887 -0.976646 -0.976646
-0.391003 -1.04021 -1.04021
-0.281654 -1.03673 -1.03673
-0.272767 -0.973052 -0.973052
-0.384948 -1.00819 -1.00819
-0.336275 -1.03827 -1.03827
-0.27721 -1.00465 -1.00465
-0.325774 -0.974644 -0.974644
-0.331026 -1.00622 -1.00622
-0.391003 -1.04021 -1.04021
-0.403099 -1.10568 -1.10568
-0.29054 -1.1023 -1.1023
-0.281654 -1.03673 -1.03673
-0.397054 -1.07271 -1.07271
-0.346767 -1.10379 -1.10379
-0.286097 -1.06928 -1.06928
-0.336275 -1.03827 -1.03827
-0.341522 -1.07079 -1.07079
-0.403099 -1.10568 -1.10568
-0.415176 -1.17303 -1.17303
-0.299428 -1.16977 -1.16977
-0.29054 -1.1023 -1.1023
-0.40914 -1.13912 -1.13912
-0.357249 -1.1712 -1.1712
-0.294984 -1.1358 -1.1358
-0.346767 -1.10379 -1.10379
-0.352009 -1.13726 -1.13726
-0.415176 -1.17303 -1.17303
-0.427236 -1.24225 -1.24225
-0.308317 -1.23911 -1.23911
-0.299428 -1.16977 -1.16977
-0.421208 -1.2074 -1.2074
-0.367723 -1.24048 -1.24048
-0.303872 -1.20421 -1.20421
-0.357249 -1.1712 -1.1712
-0.362487 -1.2056 -1.2056
-0.427236 -1.24225 -1.24225
-0.439279 -1.31334 -1.31334
-0.317209 -1.31032 -1.31032
-0.308317 -1.23911 -1.23911
-0.433259 -1.27756 -1.27756
-0.37819 -1.31163 -1.31163
-0.312763 -1.27448 -1.27448
-0.367723 -1.24048 -1.24048
-0.372957 -1.27582 -1.27582
-0.439279 -1.31334 -1.31334
-0.451306 -1.38628 -1.38628
-0.326105 -1.38338 -1.38338
-0.317209 -1.31032 -1.31032
-0.445294 -1.34958 -1.34958
-0.388652 -1.38463 -1.38463
-0.321657 -1.34662 -1.34662
-0.37819 -1.31163 -1.31163
-0.383422 -1.3479 -1.3479
-0.451306 -1.38628 -1.38628
-0.463318 -1.46106 -1.46106
-0.335006 -1.45828 -1.45828
-0.326105 -1.38338 -1.38338
-0.457314 -1.42344 -1.42344
-0.399109 -1.45948 -1.45948
-0.330555 -1.4206 -1.4206
-0.388652 -1.38463 -1.38463
-0.393881 -1.42182 -1.42182
-0.463318 -1.46106 -1.46106
-0.475318 -1.53768 -1.53768
-0.343913 -1.53502 -1.53502
-0.335006 -1.45828 -1.45828
-0.46932 -1.49914 -1.49914
-0.409562 -1.53615 -1.53615
-0.339459 -1.49642 -1.49642
-0.399109 -1.45948 -1.45948
-0.404335 -1.49759 -1.49759
-0.475318 -1.53768 -1.53768
-0.487304 -1.61611 -1.61611
-0.352827 -1.61357 -1.61357
-0.343913 -1.53502 -1.53502
-0.481312 -1.57666 -1.57666
-0.420012 -1.61465 -1.61465
-0.348369 -1.57407 -1.57407
-0.409562 -1.53615 -1.53615
-0.414787 -1.57517 -1.57517
-0.487304 -1.61611 -1.61611
-0.499279 -1.69634 -1.69634
-0.361749 -1.69394 -1.69394
-0.352827 -1.61357 -1.61357
-0.493293 -1.656 -1.656
-0.43046 -1.69495 -1.69495
-0.357287 -1.65353 -1.65353
-0.420012 -1.61465 -1.61465
-0.425236 -1.65457 -1.65457
-0.499279 -1.69634 -1.69634
-0.511243 -1.77838 -1.77838
-0.37068 -1.7761 -1.7761
-0.361749 -1.69394 -1.69394
-0.505262 -1.73714 -1.73714
-0.440907 -1.77704 -1.77704
-0.366213 -1.73479 -1.73479
-0.43046 -1.69495 -1.69495
-0.435684 -1.73577 -1.73577
-0.511243 -1.77838 -1.77838
-0.523197 -1.86219 -1.86219
-0.37962 -1.86004 -1.86004
-0.37068 -1.7761 -1.7761
-0.517221 -1.82006 -1.82006
-0.451355 -1.86093 -1.86093
-0.375149 -1.81785 -1.81785
-0.440907 -1.77704 -1.77704
-0.446131 -1.81876 -1.81876
-0.523197 -1.86219 -1.86219
-0.535143 -1.94778 -1.94778
-0.388571 -1.94576 -1.94576
-0.37962 -1.86004 -1.86004
-0.529171 -1.90477 -1.90477
-0.461803 -1.94658 -1.94658
-0.384094 -1.90268 -1.90268
-0.451355 -1.86093 -1.86093
-0.456578 -1.90353 -1.90353
-0.535143 -1.94778 -1.94778
-0.54708 -2.03513 -2.03513
-0.397534 -2.03325 -2.03325
-0.388571 -1.94576 -1.94576
-0.541112 -1.99124 -1.99124
-0.472253 -2.034 -2.034
-0.393051 -1.98928 -1.98928
-0.461803 -1.94658 -1.94658
-0.467027 -1.99007 -1.99007
-0.54708 -2.03513 -2.03513
-0.55901 -2.12423 -2.12423
-0.406508 -2.12248 -2.12248
-0.397534 -2.03325 -2.03325
-0.553046 -2.07947 -2.07947
-0.482705 -2.12317 -2.12317
-0.402019 -2.07764 -2.07764
-0.472253 -2.034 -2.034
-0.477478 -2.07837 -2.07837
-0.55901 -2.12423 -2.12423
-0.570934 -2.21507 -2.21507
-0.415496 -2.21345 -2.21345
-0.406508 -2.12248 -2.12248
-0.564973 -2.16944 -2.16944
-0.49316 -2.21408 -2.21408
-0.411001 -2.16775 -2.16775
-0.482705 -2.12317 -2.12317
-0.487932 -2.16841 -2.16841
-0.570934 -2.21507 -2.21507
-0.582852 -2.30764 -2.30764
-0.424498 -2.30616 -2.30616
-0.415496 -2.21345 -2.21345
-0.576893 -2.26114 -2.26114
-0.50362 -2.30671 -2.30671
-0.419995 -2.25959 -2.25959
-0.49316 -2.21408 -2.21408
-0.49839 -2.26018 -2.26018
-0.582852 -2.30764 -2.30764
-0.594765 -2.40192 -2.40192
-0.433514 -2.40058 -2.40058
-0.424498 -2.30616 -2.30616
-0.588809 -2.35457 -2.35457
-0.514085 -2.40107 -2.40107
-0.429004 -2.35315 -2.35315
-0.50362 -2.30671 -2.30671
-0.508852 -2.35368 -2.35368
-0.594765 -2.40192 -2.40192
-0.606674 -2.49791 -2.49791
-0.442546 -2.4967 -2.4967
-0.433514 -2.40058 -2.40058
-0.60072 -2.4497 -2.4497
-0.524555 -2.49712 -2.49712
-0.438028 -2.44843 -2.44843
-0.514085 -2.40107 -2.40107
-0.519319 -2.44888 -2.44888
-0.606674 -2.49791 -2.49791
-0.618579 -2.59559 -2.59559
-0.451594 -2.59452 -2.59452
-0.442546 -2.4967 -2.4967
-0.612627 -2.54654 -2.54654
-0.535032 -2.59487 -2.59487
-0.447068 -2.5454 -2.5454
-0.524555 -2.49712 -2.49712
-0.529792 -2.54579 -2.54579
-0.618579 -2.59559 -2.59559
-0.630482 -2.69495 -2.69495
-0.460658 -2.69402 -2.69402
-0.451594 -2.59452 -2.59452
-0.624531 -2.64506 -2.64506
-0.545515 -2.69431 -2.69431
-0.456124 -2.64406 -2.64406
-0.535032 -2.59487 -2.59487
-0.540272 -2.64438 -2.64438
-0.630482 -2.69495 -2.69495
-0.642382 -2.79598 -2.79598
-0.46974 -2.7952 -2.7952
-0.460658 -2.69402 -2.69402
-0.636432 -2.74526 -2.74526
-0.556006 -2.79541 -2.79541
-0.465197 -2.7444 -2.7444
-0.545515 -2.69431 -2.69431
-0.55076 -2.74465 -2.74465
-0.642382 -2.79598 -2.79598
-0.654281 -2.89867 -2.89867
-0.47884 -2.89803 -2.89803
-0.46974 -2.7952 -2.7952
-0.648332 -2.84712 -2.84712
-0.566506 -2.89817 -2.89817
-0.474288 -2.84641 -2.84641
-0.556006 -2.79541 -2.79541
-0.561255 -2.84658 -2.84658
-0.654281 -2.89867 -2.89867
-0.666179 -3.00301 -3.00301
-0.487959 -3.00251 -3.00251
-0.47884 -2.89803 -2.89803
-0.66023 -2.95063 -2.95063
-0.577014 -3.00258 -3.00258
-0.483397 -2.95006 -2.95006
-0.566506 -2.89817 -2.89817
-0.571759 -2.95017 -2.95017
-0.666179 -3.00301 -3.00301
-0.678077 -3.10898 -3.10898
-0.497097 -3.10863 -3.10863
-0.487959 -3.00251 -3.00251
-0.672128 -3.05579 -3.05579
-0.587532 -3.10863 -3.10863
-0.492525 -3.05536 -3.05536
-0.577014 -3.00258 -3.00258
-0.582272 -3.0554 -3.0554
-0.678077 -3.10898 -3.10898
-0.689975 -3.21658 -3.21658
-0.506255 -3.21637 -3.21637
-0.497097 -3.10863 -3.10863
-0.684026 -3.16258 -3.16258
-0.59806 -3.2163 -3.2163
-0.501673 -3.1623 -3.1623
-0.587532 -3.10863 -3.10863
-0.592795 -3.16226 -3.16226
-0.689975 -3.21658 -3.21658
-0.701874 -3.32579 -3.32579
-0.515433 -3.32573 -3.32573
-0.506255 -3.21637 -3.21637
-0.695925 -3.27098 -3.27098
-0.608598 -3.32559 -3.32559
-0.510841 -3.27085 -3.27085
-0.59806 -3.2163 -3.2163
-0.603328 -3.27074 -3.27074
-0.701874 -3.32579 -3.32579
-0.713775 -3.4366 -3.4366
-0.524632 -3.43669 -3.43669
-0.515433 -3.32573 -3.32573
-0.707825 -3.38099 -3.38099
-0.619148 -3.43648 -3.43648
-0.52003 -3.38101 -3.38101
-0.608598 -3.32559 -3.32559
-0.613872 -3.38083 -3.38083
-0.713775 -3.4366 -3.4366
-0.725677 -3.549 -3.549
-0.533853 -3.54924 -3.54924
-0.524632 -3.43669 -3.43669
-0.719726 -3.4926 -3.4926
-0.62971 -3.54895 -3.54895
-0.52924 -3.49277 -3.49277
-0.619148 -3.43648 -3.43648
-0.624427 -3.49252 -3.49252
-0.725677 -3.549 -3.549
-0.737582 -3.66299 -3.66299
-0.543095 -3.66337 -3.66337
-0.533853 -3.54924 -3.54924
-0.73163 -3.6058 -3.6058
-0.640283 -3.66301 -3.66301
-0.538471 -3.60611 -3.60611
-0.62971 -3.54895 -3.54895
-0.634995 -3.60579 -3.60579
-0.737582 -3.66299 -3.66299
-0.74949 -3.77854 -3.77854
-0.55236 -3.77907 -3.77907
-0.543095 -3.66337 -3.66337
-0.743536 -3.72057 -3.72057
-0.65087 -3.77864 -3.77864
-0.547725 -3.72103 -3.72103
-0.640283 -3.66301 -3.66301
-0.645575 -3.72063 -3.72063
-0.74949 -3.77854 -3.77854
-0.761401 -3.89564 -3.89564
-0.561648 -3.89633 -3.89633
-0.55236 -3.77907 -3.77907
-0.755445 -3.83689 -3.83689
-0.661469 -3.89582 -3.89582
-0.557001 -3.83751 -3.83751
-0.65087 -3.77864 -3.77864
-0.656168 -3.83704 -3.83704
-0.761401 -3.89564 -3.89564
-0.773316 -4.01429 -4.01429
-0.570959 -4.01513 -4.01513
-0.561648 -3.89633 -3.89633
-0.767358 -3.95477 -3.95477
-0.672082 -4.01455 -4.01455
-0.5663 -3.95554 -3.95554
-0.661469 -3.89582 -3.89582
-0.666774 -3.95499 -3.95499
-0.773316 -4.01429 -4.01429
-0.785235 -4.13448 -4.13448
-0.580294 -4.13547 -4.13547
-0.570959 -4.01513 -4.01513
-0.779275 -4.07419 -4.07419
-0.682709 -4.13481 -4.13481
-0.575623 -4.07511 -4.07511
-0.672082 -4.01455 -4.01455
-0.677394 -4.07449 -4.07449
-0.785235 -4.13448 -4.13448
-0.797159 -4.25618 -4.25618
-0.589652 -4.25733 -4.25733
-0.580294 -4.13547 -4.13547
-0.791196 -4.19514 -4.19514
-0.69335 -4.25659 -4.25659
-0.58497 -4.19621 -4.19621
-0.682709 -4.13481 -4.13481
-0.688027 -4.19551 -4.19551
-0.797159 -4.25618 -4.25618
-0.809087 -4.3794 -4.3794
-0.599036 -4.3807 -4.3807
-0.589652 -4.25733 -4.25733
-0.803122 -4.3176 -4.3176
-0.704006 -4.37989 -4.37989
-0.594341 -4.31882 -4.31882
-0.69335 -4.25659 -4.25659
-0.698676 -4.31805 -4.31805
-0.809087 -4.3794 -4.3794
-0.821021 -4.50411 -4.50411
-0.608443 -4.50557 -4.50557
-0.599036 -4.3807 -4.3807
-0.815053 -4.44157 -4.44157
-0.714676 -4.50468 -4.50468
-0.603736 -4.44294 -4.44294
-0.704006 -4.37989 -4.37989
-0.709339 -4.4421 -4.4421
-0.821021 -4.50411 -4.50411
-0.83296 -4.63032 -4.63032
-0.617877 -4.63192 -4.63192
-0.608443 -4.50557 -4.50557
-0.82699 -4.56703 -4.56703
-0.725363 -4.63096 -4.63096
-0.613157 -4.56856 -4.56856
-0.714676 -4.50468 -4.50468
-0.720018 -4.56764 -4.56764
-0.83296 -4.63032 -4.63032
-0.844905 -4.758 -4.758
-0.627335 -4.75976 -4.75976
-0.617877 -4.63192 -4.63192
-0.838932 -4.69397 -4.69397
-0.736064 -4.75872 -4.75872
-0.622603 -4.69566 -4.69566
-0.725363 -4.63096 -4.63096
-0.730711 -4.69466 -4.69466
-0.844905 -4.758 -4.758
-0.856856 -4.88714 -4.88714
-0.636819 -4.88906 -4.88906
-0.627335 -4.75976 -4.75976
-0.85088 -4.82239 -4.82239
-0.746782 -4.88795 -4.88795
-0.632074 -4.82423 -4.82423
-0.736064 -4.75872 -4.75872
-0.741421 -4.82315 -4.82315
-0.856856 -4.88714 -4.88714
-0.868814 -5.01774 -5.01774
-0.646329 -5.01981 -5.01981
-0.636819 -4.88906 -4.88906
-0.862834 -4.95226 -4.95226
-0.757516 -5.01862 -5.01862
-0.641571 -4.95425 -4.95425
-0.746782 -4.88795 -4.88795
-0.752147 -4.9531 -4.9531
-0.868814 -5.01774 -5.01774
-0.880779 -5.14978 -5.14978
-0.655865 -5.15201 -5.15201
-0.646329 -5.01981 -5.01981
-0.874795 -5.08358 -5.08358
-0.768266 -5.15074 -5.15074
-0.651094 -5.08573 -5.08573
-0.757516 -5.01862 -5.01862
-0.762889 -5.0845 -5.0845
-0.880779 -5.14978 -5.14978
-0.89275 -5.28325 -5.28325
-0.665428 -5.28564 -5.28564
-0.655865 -5.15201 -5.15201
-0.886763 -5.21634 -5.21634
-0.779033 -5.28429 -5.28429
-0.660643 -5.21864 -5.21864
-0.768266 -5.15074 -5.15074
-0.773647 -5.21734 -5.21734
-0.89275 -5.28325 -5.28325
-0.904728 -5.41814 -5.41814
-0.675017 -5.42068 -5.42068
-0.665428 -5.28564 -5.28564
-0.898738 -5.35052 -5.35052
-0.789817 -5.41926 -5.41926
-0.670219 -5.35298 -5.35298
-0.779033 -5.28429 -5.28429
-0.784423 -5.3516 -5.3516
-0.904728 -5.41814 -5.41814
-0.916714 -5.55444 -5.55444
-0.684633 -5.55714 -5.55714
-0.675017 -5.42068 -5.42068
-0.91072 -5.48611 -5.48611
-0.800617 -5.55564 -5.55564
-0.679821 -5.48874 -5.48874
-0.789817 -5.41926 -5.41926
-0.795215 -5.48728 -5.48728
-0.916714 -5.55444 -5.55444
-0.928707 -5.69213 -5.69213
-0.694275 -5.69499 -5.69499
-0.684633 -5.55714 -5.55714
-0.922709 -5.62311 -5.62311
-0.811435 -5.69342 -5.69342
-0.689451 -5.62589 -5.62589
-0.800617 -5.55564 -5.55564
-0.806024 -5.62435 -5.62435
-0.928707 -5.69213 -5.69213
-0.940708 -5.83121 -5.83121
-0.703945 -5.83423 -5.83423
-0.694275 -5.69499 -5.69499
-0.934706 -5.7615 -5.7615
-0.822271 -5.83258 -5.83258
-0.699107 -5.76444 -5.76444