<?xml version="1.0"?>
<VTKFile type="UnstructuredGrid">
  <UnstructuredGrid>
  <Piece NumberOfPoints="12411"  NumberOfCells="1379">
    <Points>
      <DataArray type="Float64" NumberOfComponents="3" format="ascii">
0 0 0
2.53115 -0.00345065 0
2.53394 4.28455 0
0 4.28571 0
1.26527 -0.00215207 0
2.53285 2.14077 0
1.26703 4.2853 0
0 2.14286 0
1.26655 2.14194 0
2.53115 -0.00345065 0
5.06322 -0.00599016 0
5.06754 4.28235 0
2.53394 4.28455 0
3.79718 -0.00467242 0
5.06549 2.13831 0
3.80076 4.28356 0
2.53285 2.14077 0
3.79916 2.13958 0
5.06322 -0.00599016 0
7.59525 -0.00905427 0
7.6011 4.27933 0
5.06754 4.28235 0
6.32925 -0.00743235 0
7.59821 2.13524 0
6.33432 4.28095 0
5.06549 2.13831 0
6.33184 2.13688 0
7.59525 -0.00905427 0
10.1272 -0.0129984 0
10.1347 4.27539 0
7.6011 4.27933 0
8.86124 -0.010907 0
10.131 2.1313 0
8.86789 4.27748 0
7.59821 2.13524 0
8.86458 2.13339 0
10.1272 -0.0129984 0
12.6592 -0.0179037 0
12.6683 4.27047 0
10.1347 4.27539 0
11.3932 -0.0153275 0
12.6637 2.12639 0
11.4015 4.27306 0
10.131 2.1313 0
11.3974 2.12897 0
12.6592 -0.0179037 0
15.1911 -0.0238255 0
15.2019 4.26454 0
12.6683 4.27047 0
13.9251 -0.0207363 0
15.1965 2.12047 0
13.9351 4.26764 0
12.6637 2.12639 0
13.9301 2.12356 0
15.1911 -0.0238255 0
17.723 -0.0307711 0
17.7356 4.25758 0
15.2019 4.26454 0
16.4571 -0.02717 0
17.7293 2.11351 0
16.4688 4.26119 0
15.1965 2.12047 0
16.4629 2.11712 0
17.723 -0.0307711 0
20.255 -0.0387472 0
20.2693 4.24958 0
17.7356 4.25758 0
18.989 -0.0346304 0
20.2622 2.10553 0
19.0025 4.25371 0
17.7293 2.11351 0
18.9958 2.10965 0
20.255 -0.0387472 0
22.787 -0.0477497 0
22.803 4.24056 0
20.2693 4.24958 0
21.521 -0.0431204 0
22.795 2.09651 0
21.5362 4.2452 0
20.2622 2.10553 0
21.5286 2.10115 0
22.787 -0.0477497 0
25.319 -0.057775 0
25.3368 4.23051 0
22.803 4.24056 0
24.053 -0.0526348 0
25.3279 2.08648 0
24.0699 4.23566 0
22.795 2.09651 0
24.0615 2.09162 0
25.319 -0.057775 0
27.851 -0.0688174 0
27.8705 4.21945 0
25.3368 4.23051 0
26.585 -0.0631694 0
27.8608 2.07542 0
26.6036 4.22511 0
25.3279 2.08648 0
26.5943 2.08108 0
27.851 -0.0688174 0
30.3831 -0.0808713 0
30.4043 4.20737 0
27.8705 4.21945 0
29.1171 -0.0747182 0
30.3937 2.06336 0
29.1374 4.21354 0
27.8608 2.07542 0
29.1273 2.06952 0
30.3831 -0.0808713 0
32.9152 -0.0939312 0
32.9381 4.19429 0
30.4043 4.20737 0
31.6491 -0.0872759 0
32.9267 2.05029 0
31.6712 4.20096 0
30.3937 2.06336 0
31.6602 2.05695 0
32.9152 -0.0939312 0
35.4473 -0.107991 0
35.4719 4.18021 0
32.9381 4.19429 0
34.1813 -0.100837 0
35.4596 2.03622 0
34.205 4.18737 0
32.9267 2.05029 0
34.1931 2.04338 0
35.4473 -0.107991 0
37.9795 -0.123046 0
38.0057 4.16513 0
35.4719 4.18021 0
36.7134 -0.115395 0
37.9926 2.02115 0
36.7388 4.17279 0
35.4596 2.03622 0
36.7261 2.02881 0
37.9795 -0.123046 0
40.5116 -0.139091 0
40.5395 4.14906 0
38.0057 4.16513 0
39.2455 -0.130945 0
40.5256 2.00509 0
39.2726 4.15722 0
37.9926 2.02115 0
39.2591 2.01324 0
40.5116 -0.139091 0
43.0438 -0.156119 0
43.0734 4.13201 0
40.5395 4.14906 0
41.7777 -0.147482 0
43.0586 1.98805 0
41.8065 4.14066 0
40.5256 2.00509 0
41.7921 1.99669 0
43.0438 -0.156119 0
45.576 -0.174126 0
45.6073 4.11397 0
43.0734 4.13201 0
44.3099 -0.165 0
45.5917 1.97003 0
44.3403 4.12311 0
43.0586 1.98805 0
44.3252 1.97916 0
45.576 -0.174126 0
48.1083 -0.193106 0
48.1412 4.09497 0
45.6073 4.11397 0
46.8422 -0.183494 0
48.1248 1.95104 0
46.8742 4.10459 0
45.5917 1.97003 0
46.8582 1.96065 0
48.1083 -0.193106 0
50.6406 -0.213053 0
50.6751 4.07499 0
48.1412 4.09497 0
49.3744 -0.202959 0
50.6578 1.93107 0
49.4081 4.0851 0
48.1248 1.95104 0
49.3913 1.94118 0
50.6406 -0.213053 0
53.1729 -0.233962 0
53.209 4.05406 0
50.6751 4.07499 0
51.9067 -0.223388 0
53.1909 1.91015 0
51.942 4.06465 0
50.6578 1.93107 0
51.9244 1.92073 0
53.1729 -0.233962 0
55.7052 -0.255829 0
55.7429 4.03216 0
53.209 4.05406 0
54.439 -0.244776 0
55.7241 1.88827 0
54.476 4.04323 0
53.1909 1.91015 0
54.4575 1.89933 0
55.7052 -0.255829 0
58.2375 -0.278647 0
58.2769 4.00932 0
55.7429 4.03216 0
56.9714 -0.267119 0
58.2572 1.86544 0
57.0099 4.02086 0
55.7241 1.88827 0
56.9906 1.87697 0
58.2375 -0.278647 0
60.7699 -0.30241 0
60.8108 3.98552 0
58.2769 4.00932 0
59.5037 -0.29041 0
60.7904 1.84166 0
59.5439 3.99754 0
58.2572 1.86544 0
59.5238 1.85367 0
60.7699 -0.30241 0
63.3023 -0.327114 0
63.3448 3.96079 0
60.8108 3.98552 0
62.0361 -0.314645 0
63.3236 1.81694 0
62.0778 3.97327 0
60.7904 1.84166 0
62.057 1.82942 0
63.3023 -0.327114 0
65.8347 -0.352754 0
65.8788 3.93512 0
63.3448 3.96079 0
64.5685 -0.339817 0
65.8568 1.79128 0
64.6118 3.94807 0
63.3236 1.81694 0
64.5902 1.80423 0
65.8347 -0.352754 0
68.3671 -0.379323 0
68.4128 3.90852 0
65.8788 3.93512 0
67.1009 -0.365922 0
68.39 1.7647 0
67.1458 3.92194 0
65.8568 1.79128 0
67.1234 1.77811 0
68.3671 -0.379323 0
70.8996 -0.406816 0
70.9468 3.881 0
68.4128 3.90852 0
69.6334 -0.392954 0
70.9232 1.73719 0
69.6798 3.89488 0
68.39 1.7647 0
69.6566 1.75106 0
70.8996 -0.406816 0
73.4321 -0.435228 0
73.4809 3.85255 0
70.9468 3.881 0
72.1658 -0.420907 0
73.4565 1.70876 0
72.2139 3.86689 0
70.9232 1.73719 0
72.1899 1.72309 0
73.4321 -0.435228 0
75.9646 -0.464554 0
76.0149 3.8232 0
73.4809 3.85255 0
74.6983 -0.449777 0
75.9898 1.67942 0
74.7479 3.83799 0
73.4565 1.70876 0
74.7231 1.6942 0
75.9646 -0.464554 0
78.4971 -0.494787 0
78.549 3.79293 0
76.0149 3.8232 0
77.2309 -0.479557 0
78.5231 1.64917 0
77.2819 3.80818 0
75.9898 1.67942 0
77.2564 1.66441 0
78.4971 -0.494787 0
81.0297 -0.525923 0
81.083 3.76176 0
78.549 3.79293 0
79.7634 -0.510243 0
81.0564 1.61802 0
79.816 3.77746 0
78.5231 1.64917 0
79.7897 1.6337 0
81.0297 -0.525923 0
83.5622 -0.557957 0
83.6171 3.7297 0
81.083 3.76176 0
82.2959 -0.541828 0
83.5897 1.58597 0
82.3501 3.74584 0
81.0564 1.61802 0
82.323 1.6021 0
83.5622 -0.557957 0
86.0948 -0.590882 0
86.1512 3.69674 0
83.6171 3.7297 0
84.8285 -0.574308 0
86.123 1.55302 0
84.8842 3.71333 0
83.5897 1.58597 0
84.8564 1.56961 0
86.0948 -0.590882 0
88.6274 -0.624693 0
88.6853 3.66289 0
86.1512 3.69674 0
87.3611 -0.607677 0
88.6564 1.51919 0
87.4183 3.67993 0
86.123 1.55302 0
87.3897 1.53622 0
88.6274 -0.624693 0
91.1601 -0.659386 0
91.2194 3.62817 0
88.6853 3.66289 0
89.8937 -0.64193 0
91.1898 1.48448 0
89.9524 3.64564 0
88.6564 1.51919 0
89.9231 1.50195 0
91.1601 -0.659386 0
93.6927 -0.694954 0
93.7536 3.59256 0
91.2194 3.62817 0
92.4264 -0.677061 0
93.7232 1.4489 0
92.4865 3.61047 0
91.1898 1.48448 0
92.4565 1.4668 0
93.6927 -0.694954 0
96.2254 -0.731392 0
96.2877 3.55609 0
93.7536 3.59256 0
94.959 -0.713064 0
96.2566 1.41244 0
95.0206 3.57443 0
93.7232 1.4489 0
94.9899 1.43078 0
96.2254 -0.731392 0
98.7581 -0.768694 0
98.8219 3.51875 0
96.2877 3.55609 0
97.4917 -0.749935 0
98.79 1.37512 0
97.5548 3.53753 0
96.2566 1.41244 0
97.5233 1.39389 0
98.7581 -0.768694 0
101.291 -0.806856 0
101.356 3.48055 0
98.8219 3.51875 0
100.024 -0.787668 0
101.323 1.33694 0
100.089 3.49976 0
98.79 1.37512 0
100.057 1.35614 0
101.291 -0.806856 0
103.824 -0.845872 0
103.89 3.4415 0
101.356 3.48055 0
102.557 -0.826258 0
103.857 1.29791 0
102.623 3.46113 0
101.323 1.33694 0
102.59 1.31753 0
103.824 -0.845872 0
106.356 -0.885736 0
106.424 3.4016 0
103.89 3.4415 0
105.09 -0.865698 0
106.39 1.25802 0
105.157 3.42166 0
103.857 1.29791 0
105.124 1.27807 0
106.356 -0.885736 0
108.889 -0.926443 0
108.959 3.36086 0
106.424 3.4016 0
107.623 -0.905985 0
108.924 1.2173 0
107.691 3.38133 0
106.39 1.25802 0
107.657 1.23776 0
108.889 -0.926443 0
111.422 -0.967988 0
111.493 3.31928 0
108.959 3.36086 0
110.155 -0.947111 0
111.457 1.17573 0
110.226 3.34017 0
108.924 1.2173 0
110.191 1.19662 0
111.422 -0.967988 0
113.955 -1.01037 0
114.027 3.27686 0
111.493 3.31928 0
112.688 -0.989073 0
113.991 1.13334 0
112.76 3.29817 0
111.457 1.17573 0
112.724 1.15464 0
113.955 -1.01037 0
116.487 -1.05357 0
116.561 3.23362 0
114.027 3.27686 0
115.221 -1.03186 0
116.524 1.09011 0
115.294 3.25534 0
113.991 1.13334 0
115.258 1.11183 0
116.487 -1.05357 0
119.02 -1.09759 0
119.095 3.18956 0
116.561 3.23362 0
117.754 -1.07548 0
119.058 1.04607 0
117.828 3.21169 0
116.524 1.09011 0
117.791 1.06819 0
119.02 -1.09759 0
121.553 -1.14243 0
121.63 3.14468 0
119.095 3.18956 0
120.287 -1.11991 0
121.591 1.00121 0
120.363 3.16722 0
119.058 1.04607 0
120.325 1.02374 0
121.553 -1.14243 0
124.086 -1.18809 0
124.164 3.09899 0
121.63 3.14468 0
122.82 -1.16516 0
124.125 0.955537 0
122.897 3.12193 0
121.591 1.00121 0
122.858 0.978474 0
124.086 -1.18809 0
126.619 -1.23454 0
126.698 3.05249 0
124.164 3.09899 0
125.352 -1.21121 0
126.659 0.909061 0
125.431 3.07584 0
124.125 0.955537 0
125.392 0.932399 0
126.619 -1.23454 0
129.152 -1.2818 0
129.232 3.0052 0
126.698 3.05249 0
127.885 -1.25807 0
129.192 0.861785 0
127.965 3.02895 0
126.659 0.909061 0
127.925 0.885523 0
129.152 -1.2818 0
131.685 -1.32985 0
131.767 2.95711 0
129.232 3.0052 0
130.418 -1.30572 0
131.726 0.813715 0
130.5 2.98125 0
129.192 0.861785 0
130.459 0.837849 0
131.685 -1.32985 0
134.218 -1.37869 0
134.301 2.90823 0
131.767 2.95711 0
132.951 -1.35417 0
134.259 0.764855 0
133.034 2.93277 0
131.726 0.813715 0
132.993 0.789383 0
134.218 -1.37869 0
136.751 -1.42831 0
136.835 2.85857 0
134.301 2.90823 0
135.484 -1.4034 0
136.793 0.715213 0
135.568 2.8835 0
134.259 0.764855 0
135.526 0.740132 0
136.751 -1.42831 0
139.284 -1.47871 0
139.369 2.80813 0
136.835 2.85857 0
138.017 -1.45341 0
139.327 0.664792 0
138.102 2.83344 0
136.793 0.715213 0
138.06 0.690099 0
139.284 -1.47871 0
141.817 -1.52988 0
141.904 2.75692 0
139.369 2.80813 0
140.55 -1.5042 0
141.86 0.613599 0
140.637 2.78262 0
139.327 0.664792 0
140.593 0.639291 0
141.817 -1.52988 0
144.35 -1.58182 0
144.438 2.70493 0
141.904 2.75692 0
143.083 -1.55576 0
144.394 0.561638 0
143.171 2.73102 0
141.86 0.613599 0
143.127 0.587714 0
144.35 -1.58182 0
146.883 -1.63452 0
146.972 2.65219 0
144.438 2.70493 0
145.616 -1.60808 0
146.928 0.508916 0
145.705 2.67866 0
144.394 0.561638 0
145.661 0.535372 0
146.883 -1.63452 0
149.416 -1.68798 0
149.507 2.59869 0
146.972 2.65219 0
148.149 -1.66116 0
149.461 0.455437 0
148.24 2.62554 0
[...]
    <PointData>
      <DataArray type="Float64" NumberOfComponents="3" Name="Displacement" format="ascii">
0 0 0
-0.00692567 -0.00345065 -0.00345065
-0.0041298 -0.00116447 -0.00116447
0 0 0
-0.00376898 -0.00215207 -0.00215207
-0.00521649 -0.002085 -0.002085
-0.00200386 -0.000416997 -0.000416997
0 0 0
-0.00248771 -0.000919249 -0.000919249
-0.00692567 -0.00345065 -0.00345065
-0.012918 -0.00599016 -0.00599016
-0.0086019 -0.00336353 -0.00336353
-0.0041298 -0.00116447 -0.00116447
-0.00993044 -0.00467242 -0.00467242
-0.0106516 -0.00454372 -0.00454372
-0.00634456 -0.00215777 -0.00215777
-0.00521649 -0.002085 -0.002085
-0.00794938 -0.00327742 -0.00327742
-0.012918 -0.00599016 -0.00599016
-0.0189644 -0.00905427 -0.00905427
-0.0131145 -0.00638546 -0.00638546
-0.0086019 -0.00336353 -0.00336353
-0.0159304 -0.00743235 -0.00743235
-0.0160075 -0.00761892 -0.00761892
-0.0108608 -0.00476807 -0.00476807
-0.0106516 -0.00454372 -0.00454372
-0.0133364 -0.00598101 -0.00598101
-0.0189644 -0.00905427 -0.00905427
-0.0250613 -0.0129984 -0.0129984
-0.0176051 -0.0103223 -0.0103223
-0.0131145 -0.00638546 -0.00638546
-0.0220083 -0.010907 -0.010907
-0.0213183 -0.0115547 -0.0115547
-0.0153636 -0.00823414 -0.00823414
-0.0160075 -0.00761892 -0.00761892
-0.0186665 -0.0094711 -0.0094711
-0.0250613 -0.0129984 -0.0129984
-0.0311917 -0.0179037 -0.0179037
-0.0220587 -0.0152393 -0.0152393
-0.0176051 -0.0103223 -0.0103223
-0.028124 -0.0153275 -0.0153275
-0.026612 -0.0164668 -0.0164668
-0.0198362 -0.0126555 -0.0126555
-0.0213183 -0.0115547 -0.0115547
-0.0239668 -0.0138851 -0.0138851
-0.0311917 -0.0179037 -0.0179037
-0.0373254 -0.0238255 -0.0238255
-0.0264845 -0.0211742 -0.0211742
-0.0220587 -0.0152393 -0.0152393
-0.0342591 -0.0207363 -0.0207363
-0.0318894 -0.0223919 -0.0223919
-0.0242748 -0.0180784 -0.0180784
-0.026612 -0.0164668 -0.0164668
-0.0292528 -0.0193016 -0.0193016
-0.0373254 -0.0238255 -0.0238255
-0.0434521 -0.0307711 -0.0307711
-0.0308845 -0.0281375 -0.0281375
-0.0264845 -0.0211742 -0.0211742
-0.0403903 -0.02717 -0.02717
-0.0371503 -0.0293458 -0.0293458
-0.0286875 -0.024527 -0.024527
-0.0318894 -0.0223919 -0.0223919
-0.0345221 -0.0257399 -0.0257399
-0.0434521 -0.0307711 -0.0307711
-0.0495608 -0.0387472 -0.0387472
-0.0352627 -0.0361321 -0.0361321
-0.0308845 -0.0281375 -0.0281375
-0.0465091 -0.0346304 -0.0346304
-0.0423916 -0.0373304 -0.0373304
-0.0330762 -0.032006 -0.032006
-0.0371503 -0.0293458 -0.0293458
-0.0397735 -0.0332094 -0.0332094
-0.0495608 -0.0387472 -0.0387472
-0.0556471 -0.0477497 -0.0477497
-0.03962 -0.0451546 -0.0451546
-0.0352627 -0.0361321 -0.0361321
-0.0526069 -0.0431204 -0.0431204
-0.0476121 -0.046343 -0.046343
-0.0374439 -0.0405151 -0.0405151
-0.0423916 -0.0373304 -0.0373304
-0.0450046 -0.0417085 -0.0417085
-0.0556471 -0.0477497 -0.0477497
-0.0617079 -0.057775 -0.057775
-0.0439578 -0.0552006 -0.0552006
-0.03962 -0.0451546 -0.0451546
-0.0586808 -0.0526348 -0.0526348
-0.0528106 -0.0563788 -0.0563788
-0.0417913 -0.05005 -0.05005
-0.0476121 -0.046343 -0.046343
-0.0502142 -0.0512334 -0.0512334
-0.0617079 -0.057775 -0.057775
-0.0677421 -0.0688174 -0.0688174
-0.0482764 -0.0662644 -0.0662644
-0.0439578 -0.0552006 -0.0552006
-0.0647284 -0.0631694 -0.0631694
-0.0579865 -0.0674323 -0.0674323
-0.0461194 -0.0606056 -0.0606056
-0.0528106 -0.0563788 -0.0563788
-0.0554014 -0.0617787 -0.0617787
-0.0677421 -0.0688174 -0.0688174
-0.0737492 -0.0808713 -0.0808713
-0.0525765 -0.0783404 -0.0783404
-0.0482764 -0.0662644 -0.0662644
-0.070749 -0.0747182 -0.0747182
-0.0631398 -0.0794978 -0.0794978
-0.0504287 -0.0721762 -0.0721762
-0.0579865 -0.0674323 -0.0674323
-0.060566 -0.073339 -0.073339
-0.0737492 -0.0808713 -0.0808713
-0.0797292 -0.0939312 -0.0939312
-0.0568585 -0.091423 -0.091423
-0.0525765 -0.0783404 -0.0783404
-0.0767426 -0.0872759 -0.0872759
-0.0682707 -0.0925696 -0.0925696
-0.0547197 -0.0847563 -0.0847563
-0.0631398 -0.0794978 -0.0794978
-0.0657081 -0.0859083 -0.0859083
-0.0797292 -0.0939312 -0.0939312
-0.0856822 -0.107991 -0.107991
-0.0611227 -0.105507 -0.105507
-0.0568585 -0.091423 -0.091423
-0.0827091 -0.100837 -0.100837
-0.0733792 -0.106642 -0.106642
-0.0589928 -0.09834 -0.09834
-0.0682707 -0.0925696 -0.0925696
-0.0708277 -0.0994811 -0.0994811
-0.0856822 -0.107991 -0.107991
-0.0916087 -0.123046 -0.123046
-0.0653696 -0.120586 -0.120586
-0.0611227 -0.105507 -0.105507
-0.0886488 -0.115395 -0.115395
-0.0784659 -0.12171 -0.12171
-0.0632483 -0.112922 -0.112922
-0.0733792 -0.106642 -0.106642
-0.0759253 -0.114052 -0.114052
-0.0916087 -0.123046 -0.123046
-0.0975089 -0.139091 -0.139091
-0.0695995 -0.136654 -0.136654
-0.0653696 -0.120586 -0.120586
-0.0945621 -0.130945 -0.130945
-0.0835308 -0.137767 -0.137767
-0.0674866 -0.128497 -0.128497
-0.0784659 -0.12171 -0.12171
-0.081001 -0.129615 -0.129615
-0.0975089 -0.139091 -0.139091
-0.103383 -0.156119 -0.156119
-0.0738127 -0.153708 -0.153708
-0.0695995 -0.136654 -0.136654
-0.100449 -0.147482 -0.147482
-0.0885746 -0.154808 -0.154808
-0.0717081 -0.145058 -0.145058
-0.0835308 -0.137767 -0.137767
-0.0860553 -0.146165 -0.146165
-0.103383 -0.156119 -0.156119
-0.109232 -0.174126 -0.174126
-0.0780095 -0.17174 -0.17174
-0.0738127 -0.153708 -0.153708
-0.106311 -0.165 -0.165
-0.0935973 -0.172829 -0.172829
-0.0759131 -0.162602 -0.162602
-0.0885746 -0.154808 -0.154808
-0.0910885 -0.163696 -0.163696
-0.109232 -0.174126 -0.174126
-0.115056 -0.193106 -0.193106
-0.0821904 -0.190746 -0.190746
-0.0780095 -0.17174 -0.17174
-0.112147 -0.183494 -0.183494
-0.0985995 -0.191822 -0.191822
-0.080102 -0.181122 -0.181122
-0.0935973 -0.172829 -0.172829
-0.096101 -0.182204 -0.182204
-0.115056 -0.193106 -0.193106
-0.120854 -0.213053 -0.213053
-0.0863557 -0.21072 -0.21072
-0.0821904 -0.190746 -0.190746
-0.117958 -0.202959 -0.202959
-0.103581 -0.211783 -0.211783
-0.084275 -0.200613 -0.200613
-0.0985995 -0.191822 -0.191822
-0.101093 -0.201682 -0.201682
-0.120854 -0.213053 -0.213053
-0.126628 -0.233962 -0.233962
-0.0905056 -0.231657 -0.231657
-0.0863557 -0.21072 -0.21072
-0.123744 -0.223388 -0.223388
-0.108543 -0.232707 -0.232707
-0.0884326 -0.221069 -0.221069
-0.103581 -0.211783 -0.211783
-0.106065 -0.222125 -0.222125
-0.126628 -0.233962 -0.233962
-0.132378 -0.255829 -0.255829
-0.0946406 -0.253552 -0.253552
-0.0905056 -0.231657 -0.231657
-0.129506 -0.244776 -0.244776
-0.113486 -0.254588 -0.254588
-0.092575 -0.242485 -0.242485
-0.108543 -0.232707 -0.232707
-0.111017 -0.243528 -0.243528
-0.132378 -0.255829 -0.255829
-0.138104 -0.278647 -0.278647
-0.0987608 -0.276398 -0.276398
-0.0946406 -0.253552 -0.253552
-0.135244 -0.267119 -0.267119
-0.118409 -0.277421 -0.277421
-0.0967025 -0.264856 -0.264856
-0.113486 -0.254588 -0.254588
-0.11595 -0.265886 -0.265886
-0.138104 -0.278647 -0.278647
-0.143806 -0.30241 -0.30241
-0.102867 -0.30019 -0.30019
-0.0987608 -0.276398 -0.276398
-0.140958 -0.29041 -0.29041
-0.123313 -0.301199 -0.301199
-0.100816 -0.288176 -0.288176
-0.118409 -0.277421 -0.277421
-0.120863 -0.289192 -0.289192
-0.143806 -0.30241 -0.30241
-0.149486 -0.327114 -0.327114
-0.106958 -0.324924 -0.324924
-0.102867 -0.30019 -0.30019
-0.146649 -0.314645 -0.314645
-0.128198 -0.325919 -0.325919
-0.104914 -0.31244 -0.31244
-0.123313 -0.301199 -0.301199
-0.125758 -0.313442 -0.313442
-0.149486 -0.327114 -0.327114
-0.155142 -0.352754 -0.352754
-0.111036 -0.350593 -0.350593
-0.106958 -0.324924 -0.324924
-0.152316 -0.339817 -0.339817
-0.133065 -0.351574 -0.351574
-0.108999 -0.337642 -0.337642
-0.128198 -0.325919 -0.325919
-0.130634 -0.33863 -0.33863
-0.155142 -0.352754 -0.352754
-0.160775 -0.379323 -0.379323
-0.115101 -0.377192 -0.377192
-0.111036 -0.350593 -0.350593
-0.157961 -0.365922 -0.365922
-0.137914 -0.378158 -0.378158
-0.11307 -0.363777 -0.363777
-0.133065 -0.351574 -0.351574
-0.135492 -0.36475 -0.36475
-0.160775 -0.379323 -0.379323
-0.166386 -0.406816 -0.406816
-0.119152 -0.404716 -0.404716
-0.115101 -0.377192 -0.377192
-0.163583 -0.392954 -0.392954
-0.142745 -0.405668 -0.405668
-0.117128 -0.390839 -0.390839
-0.137914 -0.378158 -0.378158
-0.140332 -0.391798 -0.391798
-0.166386 -0.406816 -0.406816
-0.171975 -0.435228 -0.435228
-0.123191 -0.43316 -0.43316
-0.119152 -0.404716 -0.404716
-0.169183 -0.420907 -0.420907
-0.147559 -0.434096 -0.434096
-0.121173 -0.418824 -0.418824
-0.142745 -0.405668 -0.405668
-0.145154 -0.419767 -0.419767
-0.171975 -0.435228 -0.435228
-0.177541 -0.464554 -0.464554
-0.127216 -0.462517 -0.462517
-0.123191 -0.43316 -0.43316
-0.174761 -0.449777 -0.449777
-0.152355 -0.463438 -0.463438
-0.125205 -0.447725 -0.447725
-0.147559 -0.434096 -0.434096
-0.149959 -0.448653 -0.448653
-0.177541 -0.464554 -0.464554
-0.183087 -0.494787 -0.494787
-0.13123 -0.492783 -0.492783
-0.127216 -0.462517 -0.462517
-0.180317 -0.479557 -0.479557
-0.157134 -0.493688 -0.493688
-0.129224 -0.477537 -0.477537
-0.152355 -0.463438 -0.463438
-0.154747 -0.47845 -0.47845
-0.183087 -0.494787 -0.494787
-0.188611 -0.525923 -0.525923
-0.135231 -0.523952 -0.523952
-0.13123 -0.492783 -0.492783
-0.185851 -0.510243 -0.510243
-0.161897 -0.524841 -0.524841
-0.133232 -0.508255 -0.508255
-0.157134 -0.493688 -0.493688
-0.159518 -0.509152 -0.509152
-0.188611 -0.525923 -0.525923
-0.194113 -0.557957 -0.557957
-0.13922 -0.556018 -0.556018
-0.135231 -0.523952 -0.523952
-0.191365 -0.541828 -0.541828
-0.166643 -0.556892 -0.556892
-0.137227 -0.539873 -0.539873
-0.161897 -0.524841 -0.524841
-0.164272 -0.540755 -0.540755
-0.194113 -0.557957 -0.557957
-0.199595 -0.590882 -0.590882
-0.143198 -0.588977 -0.588977
-0.13922 -0.556018 -0.556018
-0.196857 -0.574308 -0.574308
-0.171372 -0.589834 -0.589834
-0.14121 -0.572386 -0.572386
-0.166643 -0.556892 -0.556892
-0.16901 -0.573252 -0.573252
-0.199595 -0.590882 -0.590882
-0.205056 -0.624693 -0.624693
-0.147164 -0.622822 -0.622822
-0.143198 -0.588977 -0.588977
-0.202328 -0.607677 -0.607677
-0.176086 -0.623663 -0.623663
-0.145182 -0.605789 -0.605789
-0.171372 -0.589834 -0.589834
-0.173731 -0.606638 -0.606638
-0.205056 -0.624693 -0.624693
-0.210497 -0.659386 -0.659386
-0.151119 -0.657549 -0.657549
-0.147164 -0.622822 -0.622822
-0.207779 -0.64193 -0.64193
-0.180784 -0.658374 -0.658374
-0.149143 -0.640076 -0.640076
-0.176086 -0.623663 -0.623663
-0.178437 -0.640909 -0.640909
-0.210497 -0.659386 -0.659386
-0.215918 -0.694954 -0.694954
-0.155063 -0.693152 -0.693152
-0.151119 -0.657549 -0.657549
-0.21321 -0.677061 -0.677061
-0.185467 -0.693959 -0.693959
-0.153092 -0.675241 -0.675241
-0.180784 -0.658374 -0.658374
-0.183127 -0.676057 -0.676057
-0.215918 -0.694954 -0.694954
-0.221319 -0.731392 -0.731392
-0.158996 -0.729625 -0.729625
-0.155063 -0.693152 -0.693152
-0.218621 -0.713064 -0.713064
-0.190134 -0.730416 -0.730416
-0.157031 -0.71128 -0.71128
-0.185467 -0.693959 -0.693959
-0.187802 -0.712079 -0.712079
-0.221319 -0.731392 -0.731392
-0.2267 -0.768694 -0.768694
-0.162919 -0.766963 -0.766963
-0.158996 -0.729625 -0.729625
-0.224012 -0.749935 -0.749935
-0.194786 -0.767737 -0.767737
-0.160959 -0.748186 -0.748186
-0.190134 -0.730416 -0.730416
-0.192462 -0.748968 -0.748968
-0.2267 -0.768694 -0.768694
-0.232062 -0.806856 -0.806856
-0.166832 -0.805161 -0.805161
-0.162919 -0.766963 -0.766963
-0.229383 -0.787668 -0.787668
-0.199423 -0.805917 -0.805917
-0.164877 -0.785955 -0.785955
-0.194786 -0.767737 -0.767737
-0.197106 -0.78672 -0.78672
-0.232062 -0.806856 -0.806856
-0.237404 -0.845872 -0.845872
-0.170735 -0.844212 -0.844212
-0.166832 -0.805161 -0.805161
-0.234735 -0.826258 -0.826258
-0.204045 -0.844951 -0.844951
-0.168785 -0.82458 -0.82458
-0.199423 -0.805917 -0.805917
-0.201736 -0.825328 -0.825328
-0.237404 -0.845872 -0.845872
-0.242727 -0.885736 -0.885736
-0.174627 -0.884113 -0.884113
-0.170735 -0.844212 -0.844212
-0.240068 -0.865698 -0.865698
-0.208653 -0.884834 -0.884834
-0.172682 -0.864057 -0.864057
-0.204045 -0.844951 -0.844951
-0.206351 -0.864787 -0.864787
-0.242727 -0.885736 -0.885736
-0.248031 -0.926443 -0.926443
-0.17851 -0.924857 -0.924857
-0.174627 -0.884113 -0.884113
-0.245382 -0.905985 -0.905985
-0.213247 -0.925561 -0.925561
-0.17657 -0.90438 -0.90438
-0.208653 -0.884834 -0.884834
-0.210952 -0.905092 -0.905092
-0.248031 -0.926443 -0.926443
-0.253317 -0.967988 -0.967988
-0.182384 -0.966439 -0.966439
-0.17851 -0.924857 -0.924857
-0.250677 -0.947111 -0.947111
-0.217826 -0.967125 -0.967125
-0.180448 -0.945544 -0.945544
-0.213247 -0.925561 -0.925561
-0.215538 -0.946238 -0.946238
-0.253317 -0.967988 -0.967988
-0.258584 -1.01037 -1.01037
-0.186248 -1.00885 -1.00885
-0.182384 -0.966439 -0.966439
-0.255953 -0.989073 -0.989073
-0.222392 -1.00952 -1.00952
-0.184317 -0.987542 -0.987542
-0.217826 -0.967125 -0.967125
-0.220111 -0.988219 -0.988219
-0.258584 -1.01037 -1.01037
-0.263833 -1.05357 -1.05357
-0.190104 -1.05209 -1.05209
-0.186248 -1.00885 -1.00885
-0.261211 -1.03186 -1.03186
-0.226944 -1.05274 -1.05274
-0.188177 -1.03037 -1.03037
-0.222392 -1.00952 -1.00952
-0.22467 -1.03103 -1.03103
-0.263833 -1.05357 -1.05357
-0.269064 -1.09759 -1.09759
-0.19395 -1.09616 -1.09616
-0.190104 -1.05209 -1.05209
-0.266451 -1.07548 -1.07548
-0.231483 -1.09679 -1.09679
-0.192028 -1.07402 -1.07402
-0.226944 -1.05274 -1.05274
-0.229215 -1.07466 -1.07466
-0.269064 -1.09759 -1.09759
-0.274276 -1.14243 -1.14243
-0.197787 -1.14104 -1.14104
-0.19395 -1.09616 -1.09616
-0.271672 -1.11991 -1.11991
-0.236008 -1.14165 -1.14165
-0.19587 -1.1185 -1.1185
-0.231483 -1.09679 -1.09679
-0.233747 -1.11912 -1.11912
-0.274276 -1.14243 -1.14243
-0.279471 -1.18809 -1.18809
-0.201616 -1.18673 -1.18673
-0.197787 -1.14104 -1.14104
-0.276876 -1.16516 -1.16516
-0.24052 -1.18732 -1.18732
-0.199703 -1.16378 -1.16378
-0.236008 -1.14165 -1.14165
-0.238265 -1.16438 -1.16438
-0.279471 -1.18809 -1.18809
-0.284649 -1.23454 -1.23454
-0.205437 -1.23322 -1.23322
-0.201616 -1.18673 -1.18673
-0.282062 -1.21121 -1.21121
-0.245018 -1.2338 -1.2338
-0.203528 -1.20987 -1.20987
-0.24052 -1.18732 -1.18732
-0.242771 -1.21046 -1.21046
-0.284649 -1.23454 -1.23454
-0.289808 -1.2818 -1.2818
-0.209249 -1.28052 -1.28052
-0.205437 -1.23322 -1.23322
-0.287231 -1.25807 -1.25807
-0.249504 -1.28107 -1.28107
-0.207344 -1.25677 -1.25677
-0.245018 -1.2338 -1.2338
-0.247263 -1.25733 -1.25733
-0.289808 -1.2818 -1.2818
-0.294951 -1.32985 -1.32985
-0.213053 -1.32861 -1.32861
-0.209249 -1.28052 -1.28052
-0.292382 -1.30572 -1.30572
-0.253978 -1.32914 -1.32914
-0.211152 -1.30446 -1.30446
-0.249504 -1.28107 -1.28107
-0.251743 -1.30501 -1.30501
-0.294951 -1.32985 -1.32985
-0.300076 -1.37869 -1.37869
-0.216849 -1.37748 -1.37748
-0.213053 -1.32861 -1.32861
-0.297515 -1.35417 -1.35417
-0.258438 -1.378 -1.378
-0.214952 -1.35295 -1.35295
-0.253978 -1.32914 -1.32914
-0.25621 -1.35347 -1.35347
-0.300076 -1.37869 -1.37869
-0.305184 -1.42831 -1.42831
-0.220638 -1.42715 -1.42715
-0.216849 -1.37748 -1.37748
-0.302632 -1.4034 -1.4034
-0.262887 -1.42764 -1.42764
-0.218744 -1.40222 -1.40222
-0.258438 -1.378 -1.378
-0.260664 -1.40273 -1.40273
-0.305184 -1.42831 -1.42831
-0.310275 -1.47871 -1.47871
-0.224418 -1.47759 -1.47759
-0.220638 -1.42715 -1.42715
-0.307732 -1.45341 -1.45341
-0.267322 -1.47807 -1.47807
-0.222529 -1.45227 -1.45227
-0.262887 -1.42764 -1.42764
-0.265106 -1.45276 -1.45276
-0.310275 -1.47871 -1.47871
-0.31535 -1.52988 -1.52988
-0.228191 -1.5288 -1.5288
-0.224418 -1.47759 -1.47759
-0.312814 -1.5042 -1.5042
-0.271746 -1.52926 -1.52926
-0.226306 -1.5031 -1.5031
-0.267322 -1.47807 -1.47807
-0.269536 -1.50357 -1.50357
-0.31535 -1.52988 -1.52988
-0.320407 -1.58182 -1.58182
-0.231957 -1.58078 -1.58078
-0.228191 -1.5288 -1.5288
-0.31788 -1.55576 -1.55576
-0.276158 -1.58122 -1.58122
-0.230075 -1.55469 -1.55469
-0.271746 -1.52926 -1.52926
-0.273953 -1.55514 -1.55514
-0.320407 -1.58182 -1.58182
-0.325448 -1.63452 -1.63452
-0.235715 -1.63352 -1.63352
-0.231957 -1.58078 -1.58078
-0.32293 -1.60808 -1.60808
-0.280557 -1.63394 -1.63394
-0.233837 -1.60706 -1.60706
-0.276158 -1.58122 -1.58122
-0.278359 -1.60749 -1.60749
-0.325448 -1.63452 -1.63452
-0.330473 -1.68798 -1.68798
-0.239466 -1.68702 -1.68702
-0.235715 -1.63352 -1.63352
-0.327963 -1.66116 -1.66116
-0.284945 -1.68742 -1.68742
-0.237591 -1.66018 -1.66018
-0.280557 -1.63394 -1.63394
-0.282753 -1.66059 -1.66059
-0.330473 -1.68798 -1.68798
-0.335482 -1.74219 -1.74219
-0.24321 -1.74127 -1.74127
-0.239466 -1.68702 -1.68702
-0.332979 -1.71499 -1.71499
-0.289321 -1.74165 -1.74165
-0.241339 -1.71405 -1.71405
-0.284945 -1.68742 -1.68742
-0.287135 -1.71444 -1.71444
-0.335482 -1.74219 -1.74219
-0.340474 -1.79714 -1.79714
-0.246947 -1.79626 -1.79626
-0.24321 -1.74127 -1.74127
-0.33798 -1.76957 -1.76957
-0.293686 -1.79662 -1.79662
-0.245079 -1.76867 -1.76867
-0.289321 -1.74165 -1.74165
-0.291505 -1.76904 -1.76904
-0.340474 -1.79714 -1.79714
-0.34545 -1.85284 -1.85284
-0.250677 -1.852 -1.852
-0.246947 -1.79626 -1.79626
-0.342964 -1.8249 -1.8249
-0.298039 -1.85234 -1.85234
-0.248812 -1.82404 -1.82404
-0.293686 -1.79662 -1.79662
-0.295864 -1.82439 -1.82439
-0.34545 -1.85284 -1.85284
-0.35041 -1.90926 -1.90926
-0.2544 -1.90847 -1.90847
-0.250677 -1.852 -1.852
-0.347932 -1.88096 -1.88096
-0.30238 -1.90879 -1.90879
-0.252539 -1.88014 -1.88014
-0.298039 -1.85234 -1.85234
-0.300211 -1.88047 -1.88047
-0.35041 -1.90926 -1.90926
-0.355354 -1.96642 -1.96642
-0.258116 -1.96567 -1.96567
-0.2544 -1.90847 -1.90847
-0.352884 -1.93775 -1.93775
-0.306711 -1.96597 -1.96597
-0.256259 -1.93698 -1.93698
-0.30238 -1.90879 -1.90879
-0.304547 -1.93729 -1.93729
-0.355354 -1.96642 -1.96642
-0.360282 -2.0243 -2.0243
-0.261826 -2.02359 -2.02359
-0.258116 -1.96567 -1.96567
-0.35782 -1.99527 -1.99527
-0.31103 -2.02387 -2.02387
-0.259972 -1.99454 -1.99454
-0.306711 -1.96597 -1.96597
-0.308872 -1.99483 -1.99483
-0.360282 -2.0243 -2.0243
-0.365195 -2.0829 -2.0829
-0.265529 -2.08223 -2.08223
-0.261826 -2.02359 -2.02359
-0.36274 -2.05351 -2.05351
-0.315338 -2.08249 -2.08249
-0.263678 -2.05282 -2.05282
-0.31103 -2.02387 -2.02387
-0.313185 -2.05309 -2.05309
-0.365195 -2.0829 -2.0829
-0.370091 -2.14221 -2.14221
-0.269226 -2.14159 -2.14159
-0.265529 -2.08223 -2.08223
-0.367645 -2.11247 -2.11247
-0.319634 -2.14183 -2.14183
-0.267378 -2.11182 -2.11182
-0.315338 -2.08249 -2.08249
-0.317487 -2.11207 -2.11207
-0.370091 -2.14221 -2.14221
-0.374973 -2.20223 -2.20223
-0.272916 -2.20165 -2.20165
-0.269226 -2.14159 -2.14159
-0.372534 -2.17214 -2.17214
-0.32392 -2.20187 -2.20187
-0.271072 -2.17153 -2.17153
-0.319634 -2.14183 -2.14183
-0.321779 -2.17176 -2.17176
-0.374973 -2.20223 -2.20223
-0.379838 -2.26296 -2.26296
-0.276601 -2.26241 -2.26241
-0.272916 -2.20165 -2.20165
-0.377407 -2.23251 -2.23251
-0.328195 -2.26261 -2.26261
-0.274759 -2.23194 -2.23194
-0.32392 -2.20187 -2.20187
-0.326059 -2.23215 -2.23215
-0.379838 -2.26296 -2.26296
-0.384688 -2.32437 -2.32437
-0.280278 -2.32387 -2.32387
-0.276601 -2.26241 -2.26241
-0.382265 -2.29358 -2.29358
-0.332459 -2.32405 -2.32405
-0.27844 -2.29306 -2.29306
-0.328195 -2.26261 -2.26261
-0.330328 -2.29324 -2.29324
-0.384688 -2.32437 -2.32437
-0.389523 -2.38648 -2.38648
-0.28395 -2.38602 -2.38602
-0.280278 -2.32387 -2.32387
-0.387108 -2.35534 -2.35534
-0.336712 -2.38618 -2.38618
-0.282115 -2.35486 -2.35486
-0.332459 -2.32405 -2.32405
-0.334587 -2.35503 -2.35503
-0.389523 -2.38648 -2.38648
-0.394342 -2.44928 -2.44928
-0.287615 -2.44886 -2.44886
-0.28395 -2.38602 -2.38602
-0.391935 -2.4178 -2.4178
-0.340954 -2.449 -2.449
-0.285783 -2.41736 -2.41736
-0.336712 -2.38618 -2.38618
-0.338835 -2.4175 -2.4175
-0.394342 -2.44928 -2.44928
-0.399146 -2.51275 -2.51275
-0.291275 -2.51238 -2.51238
-0.287615 -2.44886 -2.44886
-0.396746 -2.48093 -2.48093
-0.345186 -2.5125 -2.5125
-0.289446 -2.48054 -2.48054
-0.340954 -2.449 -2.449
-0.343072 -2.48066 -2.48066
-0.399146 -2.51275 -2.51275
-0.403935 -2.5769 -2.5769
-0.294928 -2.57657 -2.57657
-0.291275 -2.51238 -2.51238
-0.401543 -2.54474 -2.54474
-0.349407 -2.57667 -2.57667
-0.293102 -2.54439 -2.54439
-0.345186 -2.5125 -2.5125
-0.347298 -2.5445 -2.5445
-0.403935 -2.5769 -2.5769
-0.408709 -2.64172 -2.64172
-0.298575 -2.64144 -2.64144
-0.294928 -2.57657 -2.57657
-0.406324 -2.60923 -2.60923
-0.353617 -2.64151 -2.64151
-0.296752 -2.60892 -2.60892
-0.349407 -2.57667 -2.57667
-0.351513 -2.609 -2.609