<?xml version="1.0"?>
<VTKFile type="UnstructuredGrid">
  <UnstructuredGrid>
  <Piece NumberOfPoints="12411"  NumberOfCells="1379">
    <Points>
      <DataArray type="Float64" NumberOfComponents="3" format="ascii">
0 0 0
2.53653 -0.000768132 0
2.53715 4.28545 0
0 4.28571 0
1.2682 -0.000478722 0
2.53691 2.14239 0
1.26859 4.28562 0
0 2.14286 0
1.26848 2.14265 0
2.53653 -0.000768132 0
5.07327 -0.00133439 0
5.07423 4.28496 0
2.53715 4.28545 0
3.8049 -0.00104057 0
5.07378 2.14184 0
3.8057 4.28523 0
2.53691 2.14239 0
3.80534 2.14213 0
5.07327 -0.00133439 0
7.61 -0.00201749 0
7.6113 4.28429 0
5.07423 4.28496 0
6.34164 -0.00165594 0
7.61066 2.14116 0
6.34277 4.28465 0
5.07378 2.14184 0
6.34222 2.14152 0
7.61 -0.00201749 0
10.1467 -0.00289639 0
10.1484 4.28341 0
7.6113 4.28429 0
8.87836 -0.0024304 0
10.1476 2.14028 0
8.87984 4.28388 0
7.61066 2.14116 0
8.8791 2.14075 0
10.1467 -0.00289639 0
12.6834 -0.00398925 0
12.6855 4.28232 0
10.1484 4.28341 0
11.4151 -0.00341533 0
12.6844 2.13919 0
11.4169 4.28289 0
10.1476 2.14028 0
11.416 2.13976 0
12.6834 -0.00398925 0
15.2201 -0.00530835 0
15.2225 4.281 0
12.6855 4.28232 0
13.9518 -0.00462024 0
15.2213 2.13787 0
13.954 4.28169 0
12.6844 2.13919 0
13.9529 2.13856 0
15.2201 -0.00530835 0
17.7569 -0.00685539 0
17.7596 4.27945 0
15.2225 4.281 0
16.4885 -0.0060533 0
17.7583 2.13632 0
16.4911 4.28025 0
15.2213 2.13787 0
16.4898 2.13712 0
17.7569 -0.00685539 0
20.2936 -0.00863187 0
20.2967 4.27767 0
17.7596 4.27945 0
19.0252 -0.00771496 0
20.2952 2.13454 0
19.0282 4.27859 0
17.7583 2.13632 0
19.0267 2.13546 0
20.2936 -0.00863187 0
22.8303 -0.0106369 0
22.8339 4.27566 0
20.2967 4.27767 0
21.5619 -0.00960588 0
22.8321 2.13254 0
21.5653 4.27669 0
20.2952 2.13454 0
21.5636 2.13357 0
22.8303 -0.0106369 0
25.367 -0.0128697 0
25.371 4.27342 0
22.8339 4.27566 0
24.0987 -0.0117249 0
25.369 2.1303 0
24.1024 4.27457 0
22.8321 2.13254 0
24.1005 2.13145 0
25.367 -0.0128697 0
27.9038 -0.015329 0
27.9081 4.27096 0
25.371 4.27342 0
26.6354 -0.0140711 0
27.9059 2.12784 0
26.6395 4.27222 0
25.369 2.1303 0
26.6375 2.1291 0
27.9038 -0.015329 0
30.4405 -0.0180136 0
30.4452 4.26827 0
27.9081 4.27096 0
29.1721 -0.0166432 0
30.4429 2.12515 0
29.1766 4.26965 0
27.9059 2.12784 0
29.1744 2.12653 0
30.4405 -0.0180136 0
32.9772 -0.0209221 0
32.9823 4.26536 0
30.4452 4.26827 0
31.7089 -0.0194399 0
32.9798 2.12224 0
31.7138 4.26684 0
30.4429 2.12515 0
31.7113 2.12373 0
32.9772 -0.0209221 0
35.514 -0.0240535 0
35.5195 4.26223 0
32.9823 4.26536 0
34.2456 -0.02246 0
35.5167 2.11911 0
34.2509 4.26382 0
32.9798 2.12224 0
34.2483 2.1207 0
35.514 -0.0240535 0
38.0508 -0.0274064 0
38.0566 4.25887 0
35.5195 4.26223 0
36.7824 -0.0257023 0
38.0537 2.11576 0
36.788 4.26058 0
35.5167 2.11911 0
36.7852 2.11746 0
38.0508 -0.0274064 0
40.5875 -0.0309796 0
40.5937 4.25529 0
38.0566 4.25887 0
39.3191 -0.0291655 0
40.5906 2.11218 0
39.3252 4.25711 0
38.0537 2.11576 0
39.3222 2.114 0
40.5875 -0.0309796 0
43.1243 -0.0347719 0
43.1309 4.2515 0
40.5937 4.25529 0
41.8559 -0.0328484 0
43.1276 2.10839 0
41.8623 4.25342 0
40.5906 2.11218 0
41.8591 2.11031 0
43.1243 -0.0347719 0
45.6611 -0.0387821 0
45.668 4.24748 0
43.1309 4.2515 0
44.3927 -0.0367498 0
45.6646 2.10437 0
44.3995 4.24952 0
43.1276 2.10839 0
44.3961 2.10641 0
45.6611 -0.0387821 0
48.1979 -0.0430089 0
48.2052 4.24325 0
45.668 4.24748 0
46.9295 -0.0408685 0
48.2015 2.10014 0
46.9366 4.24539 0
45.6646 2.10437 0
46.933 2.10229 0
48.1979 -0.0430089 0
50.7347 -0.0474512 0
50.7423 4.23881 0
48.2052 4.24325 0
49.4663 -0.0452032 0
50.7385 2.0957 0
49.4738 4.24106 0
48.2015 2.10014 0
49.47 2.09795 0
50.7347 -0.0474512 0
53.2715 -0.0521078 0
53.2795 4.23415 0
50.7423 4.23881 0
52.0031 -0.0497528 0
53.2755 2.09104 0
52.0109 4.2365 0
50.7385 2.0957 0
52.007 2.0934 0
53.2715 -0.0521078 0
55.8083 -0.0569774 0
55.8167 4.22927 0
53.2795 4.23415 0
54.5399 -0.0545161 0
55.8125 2.08617 0
54.5481 4.23174 0
53.2755 2.09104 0
54.544 2.08863 0
55.8083 -0.0569774 0
58.3451 -0.0620589 0
58.3538 4.22419 0
55.8167 4.22927 0
57.0767 -0.0594918 0
58.3495 2.08109 0
57.0853 4.22676 0
55.8125 2.08617 0
57.081 2.08365 0
58.3451 -0.0620589 0
60.8819 -0.067351 0
60.891 4.21889 0
58.3538 4.22419 0
59.6135 -0.0646787 0
60.8865 2.07579 0
59.6224 4.22157 0
58.3495 2.08109 0
59.618 2.07847 0
60.8819 -0.067351 0
63.4188 -0.0728525 0
63.4282 4.21339 0
60.891 4.21889 0
62.1503 -0.0700756 0
63.4235 2.07029 0
62.1596 4.21616 0
60.8865 2.07579 0
62.155 2.07307 0
63.4188 -0.0728525 0
65.9556 -0.0785621 0
65.9654 4.20767 0
63.4282 4.21339 0
64.6872 -0.0756813 0
65.9605 2.06458 0
64.6968 4.21056 0
63.4235 2.07029 0
64.692 2.06746 0
65.9556 -0.0785621 0
68.4924 -0.0844788 0
68.5026 4.20175 0
65.9654 4.20767 0
67.224 -0.0814947 0
68.4975 2.05866 0
67.234 4.20474 0
65.9605 2.06458 0
67.229 2.06164 0
68.4924 -0.0844788 0
71.0293 -0.0906013 0
71.0398 4.19563 0
68.5026 4.20175 0
69.7609 -0.0875144 0
71.0345 2.05253 0
69.7712 4.19871 0
68.4975 2.05866 0
69.766 2.05562 0
71.0293 -0.0906013 0
73.5661 -0.0969284 0
73.577 4.18929 0
71.0398 4.19563 0
72.2977 -0.0937394 0
73.5716 2.0462 0
72.3084 4.19249 0
71.0345 2.05253 0
72.3031 2.04939 0
73.5661 -0.0969284 0
76.103 -0.103459 0
76.1142 4.18276 0
73.577 4.18929 0
74.8346 -0.100168 0
76.1086 2.03967 0
74.8456 4.18605 0
73.5716 2.0462 0
74.8401 2.04296 0
76.103 -0.103459 0
78.6399 -0.110191 0
78.6514 4.17602 0
76.1142 4.18276 0
77.3714 -0.1068 0
78.6456 2.03294 0
77.3828 4.17942 0
76.1086 2.03967 0
77.3771 2.03633 0
78.6399 -0.110191 0
81.1768 -0.117125 0
81.1886 4.16909 0
78.6514 4.17602 0
79.9083 -0.113633 0
81.1827 2.026 0
79.92 4.17258 0
78.6456 2.03294 0
79.9142 2.02949 0
81.1768 -0.117125 0
83.7136 -0.124258 0
83.7258 4.16195 0
81.1886 4.16909 0
82.4452 -0.120667 0
83.7197 2.01887 0
82.4572 4.16554 0
81.1827 2.026 0
82.4512 2.02246 0
83.7136 -0.124258 0
86.2505 -0.13159 0
86.2631 4.15461 0
83.7258 4.16195 0
84.9821 -0.127899 0
86.2568 2.01153 0
84.9945 4.15831 0
83.7197 2.01887 0
84.9883 2.01522 0
86.2505 -0.13159 0
88.7874 -0.139119 0
88.8003 4.14708 0
86.2631 4.15461 0
87.519 -0.13533 0
88.7939 2.004 0
87.5317 4.15087 0
86.2568 2.01153 0
87.5253 2.00779 0
88.7874 -0.139119 0
91.3243 -0.146844 0
91.3375 4.13935 0
88.8003 4.14708 0
90.0559 -0.142957 0
91.3309 1.99627 0
90.0689 4.14324 0
88.7939 2.004 0
90.0624 2.00016 0
91.3243 -0.146844 0
93.8612 -0.154765 0
93.8748 4.13143 0
91.3375 4.13935 0
92.5928 -0.15078 0
93.868 1.98835 0
92.6061 4.13541 0
91.3309 1.99627 0
92.5995 1.99234 0
93.8612 -0.154765 0
96.3982 -0.162878 0
96.412 4.12331 0
93.8748 4.13143 0
95.1297 -0.158797 0
96.4051 1.98024 0
95.1434 4.12739 0
93.868 1.98835 0
95.1365 1.98432 0
96.3982 -0.162878 0
98.9351 -0.171185 0
98.9493 4.115 0
96.412 4.12331 0
97.6666 -0.167008 0
98.9422 1.97193 0
97.6806 4.11918 0
96.4051 1.98024 0
97.6736 1.9761 0
98.9351 -0.171185 0
101.472 -0.179682 0
101.487 4.1065 0
98.9493 4.115 0
100.204 -0.17541 0
101.479 1.96343 0
100.218 4.11077 0
98.9422 1.97193 0
100.211 1.9677 0
101.472 -0.179682 0
104.009 -0.18837 0
104.024 4.0978 0
101.487 4.1065 0
102.74 -0.184002 0
104.016 1.95474 0
102.755 4.10217 0
101.479 1.96343 0
102.748 1.95911 0
104.009 -0.18837 0
106.546 -0.197246 0
106.561 4.08892 0
104.024 4.0978 0
105.277 -0.192785 0
106.553 1.94586 0
105.292 4.09339 0
104.016 1.95474 0
105.285 1.95032 0
106.546 -0.197246 0
109.083 -0.206311 0
109.098 4.07985 0
106.561 4.08892 0
107.814 -0.201755 0
109.091 1.93679 0
107.83 4.08441 0
106.553 1.94586 0
107.822 1.94135 0
109.083 -0.206311 0
111.62 -0.215561 0
111.636 4.0706 0
109.098 4.07985 0
110.351 -0.210913 0
111.628 1.92754 0
110.367 4.07525 0
109.091 1.93679 0
110.359 1.93219 0
111.62 -0.215561 0
114.157 -0.224997 0
114.173 4.06116 0
111.636 4.0706 0
112.888 -0.220256 0
114.165 1.9181 0
112.904 4.0659 0
111.628 1.92754 0
112.896 1.92284 0
114.157 -0.224997 0
116.694 -0.234617 0
116.71 4.05154 0
114.173 4.06116 0
115.425 -0.229784 0
116.702 1.90848 0
115.441 4.05637 0
114.165 1.9181 0
115.433 1.91331 0
116.694 -0.234617 0
119.231 -0.24442 0
119.247 4.04173 0
116.71 4.05154 0
117.962 -0.239495 0
119.239 1.89867 0
117.979 4.04665 0
116.702 1.90848 0
117.97 1.9036 0
119.231 -0.24442 0
121.768 -0.254404 0
121.785 4.03174 0
119.247 4.04173 0
120.499 -0.249389 0
121.776 1.88869 0
120.516 4.03676 0
119.239 1.89867 0
120.508 1.8937 0
121.768 -0.254404 0
124.305 -0.264568 0
124.322 4.02157 0
121.785 4.03174 0
123.036 -0.259464 0
124.313 1.87852 0
123.053 4.02668 0
121.776 1.88869 0
123.045 1.88363 0
124.305 -0.264568 0
126.842 -0.274912 0
126.859 4.01122 0
124.322 4.02157 0
125.573 -0.269718 0
126.85 1.86817 0
125.591 4.01642 0
124.313 1.87852 0
125.582 1.87337 0
126.842 -0.274912 0
129.379 -0.285434 0
129.397 4.0007 0
126.859 4.01122 0
128.11 -0.280151 0
129.388 1.85765 0
128.128 4.00598 0
126.85 1.86817 0
128.119 1.86293 0
129.379 -0.285434 0
131.916 -0.296133 0
131.934 3.98999 0
129.397 4.0007 0
130.647 -0.290761 0
131.925 1.84695 0
130.665 3.99537 0
129.388 1.85765 0
130.656 1.85232 0
131.916 -0.296133 0
134.453 -0.307007 0
134.471 3.97912 0
131.934 3.98999 0
133.184 -0.301548 0
134.462 1.83607 0
133.203 3.98458 0
131.925 1.84695 0
133.193 1.84153 0
134.453 -0.307007 0
136.99 -0.318055 0
137.008 3.96806 0
134.471 3.97912 0
135.721 -0.312509 0
136.999 1.82502 0
135.74 3.97361 0
134.462 1.83607 0
135.731 1.83057 0
136.99 -0.318055 0
139.527 -0.329277 0
139.546 3.95684 0
137.008 3.96806 0
138.258 -0.323644 0
139.536 1.8138 0
138.277 3.96247 0
136.999 1.82502 0
138.268 1.81943 0
139.527 -0.329277 0
142.064 -0.34067 0
142.083 3.94544 0
139.546 3.95684 0
140.795 -0.334952 0
142.073 1.8024 0
140.814 3.95116 0
139.536 1.8138 0
140.805 1.80812 0
142.064 -0.34067 0
144.601 -0.352234 0
144.62 3.93387 0
142.083 3.94544 0
143.332 -0.346431 0
144.611 1.79084 0
143.352 3.93968 0
142.073 1.8024 0
143.342 1.79664 0
144.601 -0.352234 0
147.138 -0.363968 0
147.158 3.92213 0
144.62 3.93387 0
145.869 -0.35808 0
147.148 1.7791 0
145.889 3.92802 0
144.611 1.79084 0
145.879 1.78499 0
147.138 -0.363968 0
149.675 -0.37587 0
149.695 3.91023 0
147.158 3.92213 0
[...]
    <PointData>
      <DataArray type="Float64" NumberOfComponents="3" Name="Displacement" format="ascii">
0 0 0
-0.00153825 -0.000768132 -0.000768132
-0.000916913 -0.000259712 -0.000259712
0 0 0
-0.00083694 -0.000478722 -0.000478722
-0.0011584 -0.000464314 -0.000464314
-0.000444945 -9.31173e-05 -9.31173e-05
0 0 0
-0.00055249 -0.000204631 -0.000204631
-0.00153825 -0.000768132 -0.000768132
-0.00286926 -0.00133439 -0.00133439
-0.00190968 -0.000749747 -0.000749747
-0.000916913 -0.000259712 -0.000259712
-0.00220574 -0.00104057 -0.00104057
-0.00236527 -0.00101245 -0.00101245
-0.00140857 -0.000481065 -0.000481065
-0.0011584 -0.000464314 -0.000464314
-0.00176524 -0.000730114 -0.000730114
-0.00286926 -0.00133439 -0.00133439
-0.00421183 -0.00201749 -0.00201749
-0.00291138 -0.001423 -0.001423
-0.00190968 -0.000749747 -0.000749747
-0.00353819 -0.00165594 -0.00165594
-0.00355443 -0.00169784 -0.00169784
-0.00241113 -0.00106269 -0.00106269
-0.00236527 -0.00101245 -0.00101245
-0.00296141 -0.00133283 -0.00133283
-0.00421183 -0.00201749 -0.00201749
-0.00556529 -0.00289639 -0.00289639
-0.00390802 -0.0022998 -0.0022998
-0.00291138 -0.001423 -0.001423
-0.00488759 -0.0024304 -0.0024304
-0.00473333 -0.00257469 -0.00257469
-0.00341057 -0.00183477 -0.00183477
-0.00355443 -0.00169784 -0.00169784
-0.00414473 -0.00211052 -0.00211052
-0.00556529 -0.00289639 -0.00289639
-0.00692587 -0.00398925 -0.00398925
-0.00489615 -0.00339465 -0.00339465
-0.00390802 -0.0022998 -0.0022998
-0.00624508 -0.00341533 -0.00341533
-0.00590812 -0.00366875 -0.00366875
-0.00440309 -0.00281935 -0.00281935
-0.00473333 -0.00257469 -0.00257469
-0.00532114 -0.00309376 -0.00309376
-0.00692587 -0.00398925 -0.00398925
-0.00828684 -0.00530835 -0.00530835
-0.00587774 -0.00471596 -0.00471596
-0.00489615 -0.00339465 -0.00339465
-0.00760653 -0.00462024 -0.00462024
-0.0070789 -0.00498825 -0.00498825
-0.00538771 -0.00402676 -0.00402676
-0.00590812 -0.00366875 -0.00366875
-0.00649403 -0.00430006 -0.00430006
-0.00828684 -0.00530835 -0.00530835
-0.00964585 -0.00685539 -0.00685539
-0.00685319 -0.00626612 -0.00626612
-0.00587774 -0.00471596 -0.00471596
-0.00896674 -0.0060533 -0.0060533
-0.00824558 -0.00653671 -0.00653671
-0.00636619 -0.00546237 -0.00546237
-0.0070789 -0.00498825 -0.00498825
-0.00766279 -0.00573378 -0.00573378
-0.00964585 -0.00685539 -0.00685539
-0.0110004 -0.00863187 -0.00863187
-0.00782325 -0.00804575 -0.00804575
-0.00685319 -0.00626612 -0.00626612
-0.0103238 -0.00771496 -0.00771496
-0.00940742 -0.0083146 -0.0083146
-0.00733887 -0.00712727 -0.00712727
-0.00824558 -0.00653671 -0.00653671
-0.00882714 -0.007397 -0.007397
-0.0110004 -0.00863187 -0.00863187
-0.0123494 -0.0106369 -0.0106369
-0.00878811 -0.0100542 -0.0100542
-0.00782325 -0.00804575 -0.00804575
-0.0116756 -0.00960588 -0.00960588
-0.0105641 -0.0103213 -0.0103213
-0.00830632 -0.00902143 -0.00902143
-0.00940742 -0.0083146 -0.0083146
-0.00998642 -0.00928942 -0.00928942
-0.0123494 -0.0106369 -0.0106369
-0.0136921 -0.0128697 -0.0128697
-0.00974797 -0.0122904 -0.0122904
-0.00878811 -0.0100542 -0.0100542
-0.0130215 -0.0117249 -0.0117249
-0.0117152 -0.0125559 -0.0125559
-0.00926866 -0.0111439 -0.0111439
-0.0105641 -0.0103213 -0.0103213
-0.0111403 -0.0114102 -0.0114102
-0.0136921 -0.0128697 -0.0128697
-0.0150282 -0.015329 -0.015329
-0.0107029 -0.0147532 -0.0147532
-0.00974797 -0.0122904 -0.0122904
-0.014361 -0.0140711 -0.0140711
-0.0128606 -0.015017 -0.015017
-0.010226 -0.0134935 -0.0134935
-0.0117152 -0.0125559 -0.0125559
-0.0122886 -0.0137582 -0.0137582
-0.0150282 -0.015329 -0.015329
-0.0163575 -0.0180136 -0.0180136
-0.0116529 -0.0174412 -0.0174412
-0.0107029 -0.0147532 -0.0147532
-0.0156937 -0.0166432 -0.0166432
-0.0140002 -0.0177034 -0.0177034
-0.0111785 -0.0160691 -0.0160691
-0.0128606 -0.015017 -0.015017
-0.0134311 -0.0163321 -0.0163321
-0.0163575 -0.0180136 -0.0180136
-0.01768 -0.0209221 -0.0209221
-0.012598 -0.0203534 -0.0203534
-0.0116529 -0.0174412 -0.0174412
-0.0170196 -0.0194399 -0.0194399
-0.015134 -0.0206139 -0.0206139
-0.0121261 -0.0188694 -0.0188694
-0.0140002 -0.0177034 -0.0177034
-0.0145678 -0.0191307 -0.0191307
-0.01768 -0.0209221 -0.0209221
-0.0189955 -0.0240535 -0.0240535
-0.0135383 -0.0234883 -0.0234883
-0.012598 -0.0203534 -0.0203534
-0.0183386 -0.02246 -0.02246
-0.0162619 -0.0237472 -0.0237472
-0.0130688 -0.021893 -0.021893
-0.015134 -0.0206139 -0.0206139
-0.0156986 -0.0221528 -0.0221528
-0.0189955 -0.0240535 -0.0240535
-0.0203042 -0.0274064 -0.0274064
-0.0144738 -0.0268448 -0.0268448
-0.0135383 -0.0234883 -0.0234883
-0.0196508 -0.0257023 -0.0257023
-0.0173839 -0.027102 -0.027102
-0.0140066 -0.0251389 -0.0251389
-0.0162619 -0.0237472 -0.0237472
-0.0168236 -0.025397 -0.025397
-0.0203042 -0.0274064 -0.0274064
-0.0216061 -0.0309796 -0.0309796
-0.0154044 -0.0304216 -0.0304216
-0.0144738 -0.0268448 -0.0268448
-0.020956 -0.0291655 -0.0291655
-0.0185002 -0.0306771 -0.0306771
-0.0149397 -0.0286057 -0.0286057
-0.0173839 -0.027102 -0.027102
-0.0179428 -0.0288621 -0.0288621
-0.0216061 -0.0309796 -0.0309796
-0.0229011 -0.0347719 -0.0347719
-0.0163302 -0.0342176 -0.0342176
-0.0154044 -0.0304216 -0.0304216
-0.0222544 -0.0328484 -0.0328484
-0.0196106 -0.0344714 -0.0344714
-0.0158679 -0.0322923 -0.0322923
-0.0185002 -0.0306771 -0.0306771
-0.0190561 -0.032547 -0.032547
-0.0229011 -0.0347719 -0.0347719
-0.0241892 -0.0387821 -0.0387821
-0.0172513 -0.0382314 -0.0382314
-0.0163302 -0.0342176 -0.0342176
-0.023546 -0.0367498 -0.0367498
-0.0207152 -0.0384836 -0.0384836
-0.0167914 -0.0361973 -0.0361973
-0.0196106 -0.0344714 -0.0344714
-0.0201636 -0.0364503 -0.0364503
-0.0241892 -0.0387821 -0.0387821
-0.0254706 -0.0430089 -0.0430089
-0.0181676 -0.042462 -0.042462
-0.0172513 -0.0382314 -0.0382314
-0.0248308 -0.0408685 -0.0408685
-0.021814 -0.0427124 -0.0427124
-0.01771 -0.0403197 -0.0403197
-0.0207152 -0.0384836 -0.0384836
-0.0212653 -0.040571 -0.040571
-0.0254706 -0.0430089 -0.0430089
-0.0267451 -0.0474512 -0.0474512
-0.0190791 -0.0469081 -0.0469081
-0.0181676 -0.042462 -0.042462
-0.0261087 -0.0452032 -0.0452032
-0.0229071 -0.0471567 -0.0471567
-0.018624 -0.0446582 -0.0446582
-0.021814 -0.0427124 -0.0427124
-0.0223613 -0.0449077 -0.0449077
-0.0267451 -0.0474512 -0.0474512
-0.0280129 -0.0521078 -0.0521078
-0.019986 -0.0515684 -0.0515684
-0.0190791 -0.0469081 -0.0469081
-0.0273799 -0.0497528 -0.0497528
-0.0239944 -0.0518153 -0.0518153
-0.0195331 -0.0492115 -0.0492115
-0.0229071 -0.0471567 -0.0471567
-0.0234514 -0.0494593 -0.0494593
-0.0280129 -0.0521078 -0.0521078
-0.0292739 -0.0569774 -0.0569774
-0.0208881 -0.0564418 -0.0564418
-0.019986 -0.0515684 -0.0515684
-0.0286443 -0.0545161 -0.0545161
-0.0250759 -0.056687 -0.056687
-0.0204376 -0.0539786 -0.0539786
-0.0239944 -0.0518153 -0.0518153
-0.0245359 -0.0542246 -0.0542246
-0.0292739 -0.0569774 -0.0569774
-0.0305282 -0.0620589 -0.0620589
-0.0217855 -0.0615271 -0.0615271
-0.0208881 -0.0564418 -0.0564418
-0.0299019 -0.0594918 -0.0594918
-0.0261517 -0.0617704 -0.0617704
-0.0213373 -0.0589581 -0.0589581
-0.0250759 -0.056687 -0.056687
-0.0256145 -0.0592023 -0.0592023
-0.0305282 -0.0620589 -0.0620589
-0.0317757 -0.067351 -0.067351
-0.0226782 -0.066823 -0.066823
-0.0217855 -0.0615271 -0.0615271
-0.0311528 -0.0646787 -0.0646787
-0.0272219 -0.0670646 -0.0670646
-0.0222324 -0.0641488 -0.0641488
-0.0261517 -0.0617704 -0.0617704
-0.0266875 -0.0643913 -0.0643913
-0.0317757 -0.067351 -0.067351
-0.0330165 -0.0728525 -0.0728525
-0.0235662 -0.0723284 -0.0723284
-0.0226782 -0.066823 -0.066823
-0.032397 -0.0700756 -0.0700756
-0.0282863 -0.0725681 -0.0725681
-0.0231228 -0.0695496 -0.0695496
-0.0272219 -0.0670646 -0.0670646
-0.0277548 -0.0697903 -0.0697903
-0.0330165 -0.0728525 -0.0728525
-0.0342507 -0.0785621 -0.0785621
-0.0244496 -0.078042 -0.078042
-0.0235662 -0.0723284 -0.0723284
-0.0336344 -0.0756813 -0.0756813
-0.029345 -0.0782799 -0.0782799
-0.0240085 -0.0751592 -0.0751592
-0.0282863 -0.0725681 -0.0725681
-0.0288164 -0.0753981 -0.0753981
-0.0342507 -0.0785621 -0.0785621
-0.0354781 -0.0844788 -0.0844788
-0.0253283 -0.0839626 -0.0839626
-0.0244496 -0.078042 -0.078042
-0.0348652 -0.0814947 -0.0814947
-0.0303981 -0.0841987 -0.0841987
-0.0248896 -0.0809765 -0.0809765
-0.029345 -0.0782799 -0.0782799
-0.0298723 -0.0812135 -0.0812135
-0.0354781 -0.0844788 -0.0844788
-0.0366988 -0.0906013 -0.0906013
-0.0262025 -0.090089 -0.090089
-0.0253283 -0.0839626 -0.0839626
-0.0360893 -0.0875144 -0.0875144
-0.0314456 -0.0903233 -0.0903233
-0.025766 -0.0870001 -0.0870001
-0.0303981 -0.0841987 -0.0841987
-0.0309226 -0.0872353 -0.0872353
-0.0366988 -0.0906013 -0.0906013
-0.0379129 -0.0969284 -0.0969284
-0.027072 -0.09642 -0.09642
-0.0262025 -0.090089 -0.090089
-0.0373067 -0.0937394 -0.0937394
-0.0324874 -0.0966524 -0.0966524
-0.0266378 -0.093229 -0.093229
-0.0314456 -0.0903233 -0.0903233
-0.0319672 -0.0934624 -0.0934624
-0.0379129 -0.0969284 -0.0969284
-0.0391204 -0.103459 -0.103459
-0.0279369 -0.102954 -0.102954
-0.027072 -0.09642 -0.09642
-0.0385175 -0.100168 -0.100168
-0.0335235 -0.103185 -0.103185
-0.027505 -0.0996619 -0.0996619
-0.0324874 -0.0966524 -0.0966524
-0.0330062 -0.0998934 -0.0998934
-0.0391204 -0.103459 -0.103459
-0.0403212 -0.110191 -0.110191
-0.0287972 -0.109691 -0.109691
-0.0279369 -0.102954 -0.102954
-0.0397216 -0.1068 -0.1068
-0.0345541 -0.10992 -0.10992
-0.0283676 -0.106298 -0.106298
-0.0335235 -0.103185 -0.103185
-0.0340395 -0.106527 -0.106527
-0.0403212 -0.110191 -0.110191
-0.0415154 -0.117125 -0.117125
-0.0296529 -0.116629 -0.116629
-0.0287972 -0.109691 -0.109691
-0.0409191 -0.113633 -0.113633
-0.0355791 -0.116855 -0.116855
-0.0292256 -0.113135 -0.113135
-0.0345541 -0.10992 -0.10992
-0.0350673 -0.113363 -0.113363
-0.0415154 -0.117125 -0.117125
-0.042703 -0.124258 -0.124258
-0.0305041 -0.123766 -0.123766
-0.0296529 -0.116629 -0.116629
-0.04211 -0.120667 -0.120667
-0.0365985 -0.123991 -0.123991
-0.0300791 -0.120172 -0.120172
-0.0355791 -0.116855 -0.116855
-0.0360895 -0.120398 -0.120398
-0.042703 -0.124258 -0.124258
-0.043884 -0.13159 -0.13159
-0.0313507 -0.131102 -0.131102
-0.0305041 -0.123766 -0.123766
-0.0432943 -0.127899 -0.127899
-0.0376123 -0.131325 -0.131325
-0.030928 -0.127409 -0.127409
-0.0365985 -0.123991 -0.123991
-0.0371061 -0.127633 -0.127633
-0.043884 -0.13159 -0.13159
-0.0450584 -0.139119 -0.139119
-0.0321928 -0.138635 -0.138635
-0.0313507 -0.131102 -0.131102
-0.044472 -0.13533 -0.13533
-0.0386205 -0.138856 -0.138856
-0.0317723 -0.134844 -0.134844
-0.0376123 -0.131325 -0.131325
-0.0381171 -0.135066 -0.135066
-0.0450584 -0.139119 -0.139119
-0.0462262 -0.146844 -0.146844
-0.0330304 -0.146364 -0.146364
-0.0321928 -0.138635 -0.138635
-0.0456431 -0.142957 -0.142957
-0.0396232 -0.146584 -0.146584
-0.0326122 -0.142475 -0.142475
-0.0386205 -0.138856 -0.138856
-0.0391225 -0.142695 -0.142695
-0.0462262 -0.146844 -0.146844
-0.0473875 -0.154765 -0.154765
-0.0338634 -0.154289 -0.154289
-0.0330304 -0.146364 -0.146364
-0.0468077 -0.15078 -0.15078
-0.0406204 -0.154506 -0.154506
-0.0334475 -0.150302 -0.150302
-0.0396232 -0.146584 -0.146584
-0.0401225 -0.15052 -0.15052
-0.0473875 -0.154765 -0.154765
-0.0485422 -0.162878 -0.162878
-0.034692 -0.162407 -0.162407
-0.0338634 -0.154289 -0.154289
-0.0479657 -0.158797 -0.158797
-0.041612 -0.162622 -0.162622
-0.0342783 -0.158324 -0.158324
-0.0406204 -0.154506 -0.154506
-0.0411169 -0.15854 -0.15854
-0.0485422 -0.162878 -0.162878
-0.0496904 -0.171185 -0.171185
-0.035516 -0.170717 -0.170717
-0.034692 -0.162407 -0.162407
-0.0491171 -0.167008 -0.167008
-0.0425981 -0.17093 -0.17093
-0.0351046 -0.166538 -0.166538
-0.041612 -0.162622 -0.162622
-0.0421057 -0.166752 -0.166752
-0.0496904 -0.171185 -0.171185
-0.0508321 -0.179682 -0.179682
-0.0363356 -0.179219 -0.179219
-0.035516 -0.170717 -0.170717
-0.050262 -0.17541 -0.17541
-0.0435787 -0.17943 -0.17943
-0.0359264 -0.174944 -0.174944
-0.0425981 -0.17093 -0.17093
-0.0430891 -0.175157 -0.175157
-0.0508321 -0.179682 -0.179682
-0.0519672 -0.18837 -0.18837
-0.0371507 -0.187911 -0.187911
-0.0363356 -0.179219 -0.179219
-0.0514004 -0.184002 -0.184002
-0.0445538 -0.18812 -0.18812
-0.0367437 -0.183541 -0.183541
-0.0435787 -0.17943 -0.17943
-0.044067 -0.183752 -0.183752
-0.0519672 -0.18837 -0.18837
-0.0530958 -0.197246 -0.197246
-0.0379613 -0.196792 -0.196792
-0.0371507 -0.187911 -0.187911
-0.0525323 -0.192785 -0.192785
-0.0455235 -0.196999 -0.196999
-0.0375566 -0.192328 -0.192328
-0.0445538 -0.18812 -0.18812
-0.0450393 -0.192536 -0.192536
-0.0530958 -0.197246 -0.197246
-0.054218 -0.206311 -0.206311
-0.0387675 -0.20586 -0.20586
-0.0379613 -0.196792 -0.196792
-0.0536577 -0.201755 -0.201755
-0.0464876 -0.206065 -0.206065
-0.038365 -0.201302 -0.201302
-0.0455235 -0.196999 -0.196999
-0.0460062 -0.201509 -0.201509
-0.054218 -0.206311 -0.206311
-0.0553336 -0.215561 -0.215561
-0.0395692 -0.215115 -0.215115
-0.0387675 -0.20586 -0.20586
-0.0547766 -0.210913 -0.210913
-0.0474463 -0.215318 -0.215318
-0.0391689 -0.210464 -0.210464
-0.0464876 -0.206065 -0.206065
-0.0469677 -0.210669 -0.210669
-0.0553336 -0.215561 -0.215561
-0.0564428 -0.224997 -0.224997
-0.0403666 -0.224555 -0.224555
-0.0395692 -0.215115 -0.215115
-0.055889 -0.220256 -0.220256
-0.0483996 -0.224756 -0.224756
-0.0399685 -0.219812 -0.219812
-0.0474463 -0.215318 -0.215318
-0.0479236 -0.220014 -0.220014
-0.0564428 -0.224997 -0.224997
-0.0575455 -0.234617 -0.234617
-0.0411594 -0.234179 -0.234179
-0.0403666 -0.224555 -0.224555
-0.0569949 -0.229784 -0.229784
-0.0493473 -0.234378 -0.234378
-0.0407635 -0.229344 -0.229344
-0.0483996 -0.224756 -0.224756
-0.0488741 -0.229544 -0.229544
-0.0575455 -0.234617 -0.234617
-0.0586417 -0.24442 -0.24442
-0.0419479 -0.243986 -0.243986
-0.0411594 -0.234179 -0.234179
-0.0580944 -0.239495 -0.239495
-0.0502897 -0.244183 -0.244183
-0.0415542 -0.23906 -0.23906
-0.0493473 -0.234378 -0.234378
-0.0498192 -0.239258 -0.239258
-0.0586417 -0.24442 -0.24442
-0.0597315 -0.254404 -0.254404
-0.042732 -0.253975 -0.253975
-0.0419479 -0.243986 -0.243986
-0.0591874 -0.249389 -0.249389
-0.0512266 -0.25417 -0.25417
-0.0423405 -0.248958 -0.248958
-0.0502897 -0.244183 -0.244183
-0.0507588 -0.249154 -0.249154
-0.0597315 -0.254404 -0.254404
-0.0608148 -0.264568 -0.264568
-0.0435116 -0.264143 -0.264143
-0.042732 -0.253975 -0.253975
-0.060274 -0.259464 -0.259464
-0.0521581 -0.264337 -0.264337
-0.0431223 -0.259037 -0.259037
-0.0512266 -0.25417 -0.25417
-0.051693 -0.259231 -0.259231
-0.0608148 -0.264568 -0.264568
-0.0618917 -0.274912 -0.274912
-0.0442869 -0.274492 -0.274492
-0.0435116 -0.264143 -0.264143
-0.0613541 -0.269718 -0.269718
-0.0530842 -0.274683 -0.274683
-0.0438998 -0.269295 -0.269295
-0.0521581 -0.264337 -0.264337
-0.0526218 -0.269488 -0.269488
-0.0618917 -0.274912 -0.274912
-0.0629622 -0.285434 -0.285434
-0.0450578 -0.285018 -0.285018
-0.0442869 -0.274492 -0.274492
-0.0624278 -0.280151 -0.280151
-0.0540049 -0.285207 -0.285207
-0.0446729 -0.279733 -0.279733
-0.0530842 -0.274683 -0.274683
-0.0535452 -0.279923 -0.279923
-0.0629622 -0.285434 -0.285434
-0.0640262 -0.296133 -0.296133
-0.0458243 -0.295721 -0.295721
-0.0450578 -0.285018 -0.285018
-0.063495 -0.290761 -0.290761
-0.0549201 -0.295908 -0.295908
-0.0454416 -0.290347 -0.290347
-0.0540049 -0.285207 -0.285207
-0.0544632 -0.290535 -0.290535
-0.0640262 -0.296133 -0.296133
-0.0650839 -0.307007 -0.307007
-0.0465864 -0.306599 -0.306599
-0.0458243 -0.295721 -0.295721
-0.0645558 -0.301548 -0.301548
-0.05583 -0.306784 -0.306784
-0.0462059 -0.301138 -0.301138
-0.0549201 -0.295908 -0.295908
-0.0553758 -0.301324 -0.301324
-0.0650839 -0.307007 -0.307007
-0.0661351 -0.318055 -0.318055
-0.0473442 -0.317652 -0.317652
-0.0465864 -0.306599 -0.306599
-0.0656103 -0.312509 -0.312509
-0.0567345 -0.317835 -0.317835
-0.0469658 -0.312104 -0.312104
-0.05583 -0.306784 -0.306784
-0.0562829 -0.312288 -0.312288
-0.0661351 -0.318055 -0.318055
-0.0671799 -0.329277 -0.329277
-0.0480976 -0.328878 -0.328878
-0.0473442 -0.317652 -0.317652
-0.0666583 -0.323644 -0.323644
-0.0576336 -0.329059 -0.329059
-0.0477214 -0.323243 -0.323243
-0.0567345 -0.317835 -0.317835
-0.0571848 -0.323425 -0.323425
-0.0671799 -0.329277 -0.329277
-0.0682183 -0.34067 -0.34067
-0.0488467 -0.340276 -0.340276
-0.0480976 -0.328878 -0.328878
-0.0676999 -0.334952 -0.334952
-0.0585274 -0.340455 -0.340455
-0.0484727 -0.334556 -0.334556
-0.0576336 -0.329059 -0.329059
-0.0580812 -0.334736 -0.334736
-0.0682183 -0.34067 -0.34067
-0.0692504 -0.352234 -0.352234
-0.0495914 -0.351845 -0.351845
-0.0488467 -0.340276 -0.340276
-0.0687352 -0.346431 -0.346431
-0.0594158 -0.352021 -0.352021
-0.0492196 -0.346039 -0.346039
-0.0585274 -0.340455 -0.340455
-0.0589723 -0.346217 -0.346217
-0.0692504 -0.352234 -0.352234
-0.070276 -0.363968 -0.363968
-0.0503318 -0.363583 -0.363583
-0.0495914 -0.351845 -0.351845
-0.069764 -0.35808 -0.35808
-0.0602988 -0.363757 -0.363757
-0.0499621 -0.357692 -0.357692
-0.0594158 -0.352021 -0.352021
-0.059858 -0.357868 -0.357868
-0.070276 -0.363968 -0.363968
-0.0712953 -0.37587 -0.37587
-0.0510678 -0.375489 -0.375489
-0.0503318 -0.363583 -0.363583
-0.0707865 -0.369898 -0.369898
-0.0611765 -0.375662 -0.375662
-0.0507004 -0.369515 -0.369515
-0.0602988 -0.363757 -0.363757
-0.0607383 -0.369689 -0.369689
-0.0712953 -0.37587 -0.37587
-0.0723082 -0.387939 -0.387939
-0.0517996 -0.387563 -0.387563
-0.0510678 -0.375489 -0.375489
-0.0718026 -0.381884 -0.381884
-0.0620488 -0.387733 -0.387733
-0.0514342 -0.381505 -0.381505
-0.0611765 -0.375662 -0.375662
-0.0616133 -0.381677 -0.381677
-0.0723082 -0.387939 -0.387939
-0.0733148 -0.400174 -0.400174
-0.052527 -0.399802 -0.399802
-0.0517996 -0.387563 -0.387563
-0.0728123 -0.394036 -0.394036
-0.0629158 -0.399971 -0.399971
-0.0521638 -0.393662 -0.393662
-0.0620488 -0.387733 -0.387733
-0.0624829 -0.393831 -0.393831
-0.0733148 -0.400174 -0.400174
-0.0743149 -0.412574 -0.412574
-0.0532501 -0.412206 -0.412206
-0.052527 -0.399802 -0.399802
-0.0738156 -0.406354 -0.406354
-0.0637774 -0.412373 -0.412373
-0.0528891 -0.405984 -0.405984
-0.0629158 -0.399971 -0.399971
-0.0633472 -0.406151 -0.406151
-0.0743149 -0.412574 -0.412574
-0.0753088 -0.425137 -0.425137
-0.0539689 -0.424774 -0.424774
-0.0532501 -0.412206 -0.412206
-0.0748126 -0.418835 -0.418835
-0.0646337 -0.424938 -0.424938
-0.05361 -0.41847 -0.41847
-0.0637774 -0.412373 -0.412373
-0.0642062 -0.418635 -0.418635
-0.0753088 -0.425137 -0.425137
-0.0762962 -0.437862 -0.437862
-0.0546833 -0.437504 -0.437504
-0.0539689 -0.424774 -0.424774
-0.0758033 -0.431479 -0.431479
-0.0654847 -0.437666 -0.437666
-0.0543266 -0.431118 -0.431118
-0.0646337 -0.424938 -0.424938
-0.0650598 -0.431282 -0.431282
-0.0762962 -0.437862 -0.437862
-0.0772774 -0.450749 -0.450749
-0.0553935 -0.450394 -0.450394
-0.0546833 -0.437504 -0.437504
-0.0767876 -0.444285 -0.444285
-0.0663303 -0.450554 -0.450554
-0.055039 -0.443929 -0.443929
-0.0654847 -0.437666 -0.437666
-0.0659082 -0.44409 -0.44409
-0.0772774 -0.450749 -0.450749
-0.0782521 -0.463795 -0.463795
-0.0560994 -0.463445 -0.463445
-0.0553935 -0.450394 -0.450394
-0.0777655 -0.457252 -0.457252
-0.0671706 -0.463603 -0.463603
-0.055747 -0.4569 -0.4569
-0.0663303 -0.450554 -0.450554
-0.0667511 -0.457059 -0.457059
-0.0782521 -0.463795 -0.463795
-0.0792206 -0.477 -0.477
-0.056801 -0.476654 -0.476654
-0.0560994 -0.463445 -0.463445
-0.0787371 -0.470378 -0.470378
-0.0680056 -0.47681 -0.47681
-0.0564507 -0.47003 -0.47003
-0.0671706 -0.463603 -0.463603
-0.0675888 -0.470187 -0.470187
-0.0792206 -0.477 -0.477
-0.0801827 -0.490362 -0.490362
-0.0574982 -0.490021 -0.490021
-0.056801 -0.476654 -0.476654
-0.0797024 -0.483661 -0.483661
-0.0688353 -0.490175 -0.490175
-0.0571501 -0.483318 -0.483318
-0.0680056 -0.47681 -0.47681
-0.0684212 -0.483473 -0.483473
-0.0801827 -0.490362 -0.490362
-0.0811384 -0.50388 -0.50388
-0.0581912 -0.503544 -0.503544
-0.0574982 -0.490021 -0.490021
-0.0806613 -0.497102 -0.497102
-0.0696597 -0.503696 -0.503696
-0.0578453 -0.496763 -0.496763
-0.0688353 -0.490175 -0.490175
-0.0692482 -0.496916 -0.496916
-0.0811384 -0.50388 -0.50388
-0.0820879 -0.517554 -0.517554
-0.05888 -0.517222 -0.517222
-0.0581912 -0.503544 -0.503544
-0.0816139 -0.510698 -0.510698