<?xml version="1.0"?>
<VTKFile type="UnstructuredGrid">
  <UnstructuredGrid>
  <Piece NumberOfPoints="12411"  NumberOfCells="1379">
    <Points>
      <DataArray type="Float64" NumberOfComponents="3" format="ascii">
0 0 0
2.53038 -0.00383298 0
2.53348 4.28442 0
0 4.28571 0
1.26485 -0.00239076 0
2.53227 2.14054 0
1.26681 4.28525 0
0 2.14286 0
1.26627 2.14184 0
2.53038 -0.00383298 0
5.06179 -0.00665319 0
5.06658 4.28198 0
2.53348 4.28442 0
3.79607 -0.0051898 0
5.06431 2.13781 0
3.80006 4.28332 0
2.53227 2.14054 0
3.79827 2.13922 0
5.06179 -0.00665319 0
7.59314 -0.010056 0
7.59964 4.27862 0
5.06658 4.28198 0
6.32748 -0.0082548 0
7.59643 2.1344 0
6.33311 4.28042 0
5.06431 2.13781 0
6.33036 2.13621 0
7.59314 -0.010056 0
10.1244 -0.0144364 0
10.1327 4.27425 0
7.59964 4.27862 0
8.85879 -0.0121137 0
10.1286 2.13002 0
8.86618 4.27657 0
7.59643 2.1344 0
8.86251 2.13234 0
10.1244 -0.0144364 0
12.6557 -0.0198846 0
12.6658 4.26879 0
10.1327 4.27425 0
11.3901 -0.0170233 0
12.6608 2.12457 0
11.3993 4.27166 0
10.1286 2.13002 0
11.3947 2.12744 0
12.6557 -0.0198846 0
15.187 -0.0264618 0
15.199 4.2622 0
12.6658 4.26879 0
13.9213 -0.0230306 0
15.193 2.11799 0
13.9324 4.26563 0
12.6608 2.12457 0
13.9269 2.12142 0
15.187 -0.0264618 0
17.7182 -0.0341762 0
17.7322 4.25446 0
15.199 4.2622 0
16.4526 -0.0301764 0
17.7252 2.11026 0
16.4656 4.25847 0
15.193 2.11799 0
16.4591 2.11427 0
17.7182 -0.0341762 0
20.2495 -0.0430352 0
20.2654 4.24558 0
17.7322 4.25446 0
18.9839 -0.0384627 0
20.2575 2.10139 0
18.9988 4.25016 0
17.7252 2.11026 0
18.9913 2.10597 0
20.2495 -0.0430352 0
22.7808 -0.0530343 0
22.7986 4.23556 0
20.2654 4.24558 0
21.5151 -0.0478925 0
22.7897 2.09138 0
21.532 4.24071 0
20.2575 2.10139 0
21.5236 2.09653 0
22.7808 -0.0530343 0
25.3121 -0.0641694 0
25.3319 4.2244 0
22.7986 4.23556 0
24.0465 -0.0584602 0
25.322 2.08024 0
24.0652 4.23012 0
22.7897 2.09138 0
24.0559 2.08595 0
25.3121 -0.0641694 0
27.8435 -0.0764342 0
27.8651 4.21211 0
25.3319 4.2244 0
26.5778 -0.070161 0
27.8543 2.06796 0
26.5985 4.2184 0
25.322 2.08024 0
26.5882 2.07424 0
27.8435 -0.0764342 0
30.3749 -0.0898226 0
30.3984 4.1987 0
27.8651 4.21211 0
29.1092 -0.0829883 0
30.3867 2.05456 0
29.1318 4.20554 0
27.8543 2.06796 0
29.1205 2.0614 0
30.3749 -0.0898226 0
32.9063 -0.104328 0
32.9317 4.18416 0
30.3984 4.1987 0
31.6406 -0.0969362 0
32.919 2.04004 0
31.6651 4.19157 0
30.3867 2.05456 0
31.6529 2.04744 0
32.9063 -0.104328 0
35.4378 -0.119945 0
35.4651 4.16852 0
32.9317 4.18416 0
34.172 -0.111998 0
35.4514 2.02441 0
34.1984 4.17648 0
32.919 2.04004 0
34.1852 2.03236 0
35.4378 -0.119945 0
37.9692 -0.136667 0
37.9984 4.15177 0
35.4651 4.16852 0
36.7035 -0.128168 0
37.9838 2.00767 0
36.7317 4.16028 0
35.4514 2.02441 0
36.7176 2.01618 0
37.9692 -0.136667 0
40.5008 -0.154487 0
40.5318 4.13392 0
37.9984 4.15177 0
39.235 -0.14544 0
40.5163 1.98983 0
39.2651 4.14298 0
37.9838 2.00767 0
39.2501 1.99889 0
40.5008 -0.154487 0
43.0323 -0.173401 0
43.0651 4.11498 0
40.5318 4.13392 0
41.7665 -0.163808 0
43.0487 1.97091 0
41.7985 4.12459 0
40.5163 1.98983 0
41.7825 1.98051 0
43.0323 -0.173401 0
45.5639 -0.193401 0
45.5985 4.09495 0
43.0651 4.11498 0
44.2981 -0.183266 0
45.5812 1.95089 0
44.3318 4.1051 0
43.0487 1.97091 0
44.315 1.96103 0
45.5639 -0.193401 0
48.0954 -0.214482 0
48.132 4.07384 0
45.5985 4.09495 0
46.8296 -0.203807 0
48.1137 1.92979 0
46.8653 4.08453 0
45.5812 1.95089 0
46.8475 1.94048 0
48.0954 -0.214482 0
50.6271 -0.236638 0
50.6654 4.05165 0
48.132 4.07384 0
49.3613 -0.225426 0
50.6463 1.90762 0
49.3987 4.06288 0
48.1137 1.92979 0
49.38 1.91884 0
50.6271 -0.236638 0
53.1587 -0.259862 0
53.1988 4.02839 0
50.6654 4.05165 0
51.8929 -0.248117 0
53.1788 1.88438 0
51.9321 4.04016 0
50.6463 1.90762 0
51.9125 1.89613 0
53.1587 -0.259862 0
55.6904 -0.28415 0
55.7323 4.00407 0
53.1988 4.02839 0
54.4245 -0.271873 0
55.7114 1.86008 0
54.4656 4.01637 0
53.1788 1.88438 0
54.4451 1.87236 0
55.6904 -0.28415 0
58.2221 -0.309493 0
58.2658 3.9787 0
55.7323 4.00407 0
56.9562 -0.29669 0
58.244 1.83471 0
56.999 3.99152 0
55.7114 1.86008 0
56.9777 1.84753 0
58.2221 -0.309493 0
60.7538 -0.335888 0
60.7993 3.95227 0
58.2658 3.9787 0
59.4879 -0.32256 0
60.7766 1.8083 0
59.5325 3.96561 0
58.244 1.83471 0
59.5103 1.82164 0
60.7538 -0.335888 0
63.2855 -0.363327 0
63.3328 3.92479 0
60.7993 3.95227 0
62.0197 -0.349477 0
63.3092 1.78084 0
62.066 3.93866 0
60.7766 1.8083 0
62.0429 1.7947 0
63.2855 -0.363327 0
65.8173 -0.391805 0
65.8663 3.89628 0
63.3328 3.92479 0
64.5514 -0.377437 0
65.8418 1.75235 0
64.5996 3.91067 0
63.3092 1.78084 0
64.5755 1.76673 0
65.8173 -0.391805 0
68.3491 -0.421316 0
68.3999 3.86673 0
65.8663 3.89628 0
67.0832 -0.406432 0
68.3745 1.72282 0
67.1331 3.88164 0
65.8418 1.75235 0
67.1082 1.73771 0
68.3491 -0.421316 0
70.8809 -0.451853 0
70.9334 3.83616 0
68.3999 3.86673 0
69.615 -0.436457 0
70.9072 1.69226 0
69.6666 3.85158 0
68.3745 1.72282 0
69.6409 1.70767 0
70.8809 -0.451853 0
73.4128 -0.483411 0
73.467 3.80457 0
70.9334 3.83616 0
72.1468 -0.467505 0
73.4399 1.66069 0
72.2002 3.82049 0
70.9072 1.69226 0
72.1735 1.6766 0
73.4128 -0.483411 0
75.9446 -0.515983 0
76.0006 3.77196 0
73.467 3.80457 0
74.6787 -0.499571 0
75.9726 1.62809 0
74.7338 3.78839 0
73.4399 1.66069 0
74.7063 1.64452 0
75.9446 -0.515983 0
78.4765 -0.549564 0
78.5341 3.73834 0
76.0006 3.77196 0
77.2106 -0.532648 0
78.5054 1.59449 0
77.2673 3.75527 0
75.9726 1.62809 0
77.239 1.61142 0
78.4765 -0.549564 0
81.0084 -0.584148 0
81.0677 3.70372 0
78.5341 3.73834 0
79.7425 -0.566731 0
81.0381 1.55989 0
79.8009 3.72115 0
78.5054 1.59449 0
79.7717 1.57732 0
81.0084 -0.584148 0
83.5404 -0.619728 0
83.6014 3.6681 0
81.0677 3.70372 0
82.2744 -0.601814 0
83.5709 1.52429 0
82.3345 3.68603 0
81.0381 1.55989 0
82.3045 1.54221 0
83.5404 -0.619728 0
86.0723 -0.656299 0
86.135 3.63149 0
83.6014 3.6681 0
84.8063 -0.63789 0
86.1037 1.4877 0
84.8682 3.64991 0
83.5709 1.52429 0
84.8373 1.50612 0
86.0723 -0.656299 0
88.6043 -0.693854 0
88.6686 3.59389 0
86.135 3.63149 0
87.3383 -0.674954 0
88.6365 1.45012 0
87.4018 3.61281 0
86.1037 1.4877 0
87.3701 1.46903 0
88.6043 -0.693854 0
91.1363 -0.732388 0
91.2023 3.55532 0
88.6686 3.59389 0
89.8703 -0.712999 0
91.1693 1.41157 0
89.9354 3.57473 0
88.6365 1.45012 0
89.9029 1.43097 0
91.1363 -0.732388 0
93.6683 -0.771894 0
93.7359 3.51577 0
91.2023 3.55532 0
92.4023 -0.752019 0
93.7021 1.37204 0
92.4691 3.53566 0
91.1693 1.41157 0
92.4357 1.39193 0
93.6683 -0.771894 0
96.2003 -0.812366 0
96.2696 3.47525 0
93.7359 3.51577 0
94.9343 -0.79201 0
96.235 1.33155 0
95.0028 3.49563 0
93.7021 1.37204 0
94.9686 1.35191 0
96.2003 -0.812366 0
98.7324 -0.853799 0
98.8033 3.43378 0
96.2696 3.47525 0
97.4664 -0.832963 0
98.7679 1.29009 0
97.5364 3.45464 0
96.235 1.33155 0
97.5014 1.31094 0
98.7324 -0.853799 0
101.264 -0.896187 0
101.337 3.39135 0
98.8033 3.43378 0
99.9984 -0.874874 0
101.301 1.24768 0
100.07 3.41268 0
98.7679 1.29009 0
100.034 1.26901 0
101.264 -0.896187 0
103.797 -0.939523 0
103.871 3.34797 0
101.337 3.39135 0
102.531 -0.917737 0
103.834 1.20433 0
102.604 3.36978 0
101.301 1.24768 0
102.567 1.22612 0
103.797 -0.939523 0
106.329 -0.983801 0
106.404 3.30365 0
103.871 3.34797 0
105.063 -0.961544 0
106.367 1.16002 0
105.138 3.32593 0
103.834 1.20433 0
105.1 1.18229 0
106.329 -0.983801 0
108.861 -1.02902 0
108.938 3.25839 0
106.404 3.30365 0
107.595 -1.00629 0
108.899 1.11479 0
107.671 3.28114 0
106.367 1.16002 0
107.633 1.13752 0
108.861 -1.02902 0
111.393 -1.07516 0
111.472 3.2122 0
108.938 3.25839 0
110.127 -1.05197 0
111.432 1.06862 0
110.205 3.23541 0
108.899 1.11479 0
110.166 1.09182 0
111.393 -1.07516 0
113.925 -1.12223 0
114.006 3.16509 0
111.472 3.2122 0
112.659 -1.09858 0
113.965 1.02153 0
112.739 3.18876 0
111.432 1.06862 0
112.699 1.04519 0
113.925 -1.12223 0
116.457 -1.17022 0
116.539 3.11706 0
114.006 3.16509 0
115.191 -1.14611 0
116.498 0.973517 0
115.272 3.14119 0
113.965 1.02153 0
115.232 0.997637 0
116.457 -1.17022 0
118.99 -1.21912 0
119.073 3.06811 0
116.539 3.11706 0
117.723 -1.19455 0
119.031 0.924594 0
117.806 3.0927 0
116.498 0.973517 0
117.765 0.949169 0
118.99 -1.21912 0
121.522 -1.26892 0
121.607 3.01826 0
119.073 3.06811 0
120.256 -1.24391 0
121.564 0.874765 0
120.34 3.0433 0
119.031 0.924594 0
120.298 0.899792 0
121.522 -1.26892 0
124.054 -1.31963 0
124.141 2.96751 0
121.607 3.01826 0
122.788 -1.29416 0
124.097 0.824035 0
122.874 2.993 0
121.564 0.874765 0
122.831 0.849512 0
124.054 -1.31963 0
126.586 -1.37123 0
126.674 2.91586 0
124.141 2.96751 0
125.32 -1.34532 0
126.63 0.77241 0
125.407 2.9418 0
124.097 0.824035 0
125.364 0.798334 0
126.586 -1.37123 0
129.119 -1.42372 0
129.208 2.86333 0
126.674 2.91586 0
127.852 -1.39736 0
129.163 0.719898 0
127.941 2.8897 0
126.63 0.77241 0
127.897 0.746265 0
129.119 -1.42372 0
131.651 -1.47709 0
131.742 2.80991 0
129.208 2.86333 0
130.385 -1.45029 0
131.696 0.666503 0
130.475 2.83673 0
129.163 0.719898 0
130.43 0.69331 0
131.651 -1.47709 0
134.183 -1.53134 0
134.276 2.75561 0
131.742 2.80991 0
132.917 -1.5041 0
134.229 0.612231 0
133.009 2.78287 0
131.696 0.666503 0
132.963 0.639476 0
134.183 -1.53134 0
136.716 -1.58645 0
136.809 2.70045 0
134.276 2.75561 0
135.449 -1.55879 0
136.763 0.55709 0
135.543 2.72814 0
134.229 0.612231 0
135.496 0.584769 0
136.716 -1.58645 0
139.248 -1.64244 0
139.343 2.64442 0
136.809 2.70045 0
137.982 -1.61434 0
139.296 0.501084 0
138.076 2.67254 0
136.763 0.55709 0
138.029 0.529195 0
139.248 -1.64244 0
141.78 -1.69927 0
141.877 2.58753 0
139.343 2.64442 0
140.514 -1.67075 0
141.829 0.44422 0
140.61 2.61608 0
139.296 0.501084 0
140.562 0.472759 0
141.78 -1.69927 0
144.313 -1.75697 0
144.411 2.52979 0
141.877 2.58753 0
143.046 -1.72801 0
144.362 0.386504 0
143.144 2.55877 0
141.829 0.44422 0
143.095 0.415468 0
144.313 -1.75697 0
146.845 -1.8155 0
146.945 2.47121 0
144.411 2.52979 0
145.579 -1.78613 0
146.895 0.327942 0
145.678 2.50061 0
144.362 0.386504 0
145.628 0.357328 0
146.845 -1.8155 0
149.377 -1.87488 0
149.479 2.41178 0
146.945 2.47121 0
148.111 -1.84509 0
149.428 0.268539 0
[...]
    <PointData>
      <DataArray type="Float64" NumberOfComponents="3" Name="Displacement" format="ascii">
0 0 0
-0.00769539 -0.00383298 -0.00383298
-0.00458902 -0.00129313 -0.00129313
0 0 0
-0.00418802 -0.00239076 -0.00239076
-0.00579641 -0.00231588 -0.00231588
-0.00222665 -0.000462993 -0.000462993
0 0 0
-0.00276423 -0.0010211 -0.0010211
-0.00769539 -0.00383298 -0.00383298
-0.0143537 -0.00665319 -0.00665319
-0.00955852 -0.00373547 -0.00373547
-0.00458902 -0.00129313 -0.00129313
-0.011034 -0.0051898 -0.0051898
-0.0118358 -0.00504644 -0.00504644
-0.00705011 -0.00239632 -0.00239632
-0.00579641 -0.00231588 -0.00231588
-0.00883314 -0.00364016 -0.00364016
-0.0143537 -0.00665319 -0.00665319
-0.0210723 -0.010056 -0.010056
-0.0145731 -0.0070918 -0.0070918
-0.00955852 -0.00373547 -0.00373547
-0.017701 -0.0082548 -0.0082548
-0.0177872 -0.00846174 -0.00846174
-0.0120687 -0.00529541 -0.00529541
-0.0118358 -0.00504644 -0.00504644
-0.0148191 -0.00664266 -0.00664266
-0.0210723 -0.010056 -0.010056
-0.0278473 -0.0144364 -0.0144364
-0.0195633 -0.0114644 -0.0114644
-0.0145731 -0.0070918 -0.0070918
-0.0244547 -0.0121137 -0.0121137
-0.0236887 -0.0128331 -0.0128331
-0.0170724 -0.00914512 -0.00914512
-0.0177872 -0.00846174 -0.00846174
-0.020742 -0.0105188 -0.0105188
-0.0278473 -0.0144364 -0.0144364
-0.0346597 -0.0198846 -0.0198846
-0.0245126 -0.016926 -0.016926
-0.0195633 -0.0114644 -0.0114644
-0.0312507 -0.0170233 -0.0170233
-0.0295715 -0.0182889 -0.0182889
-0.0220427 -0.014056 -0.014056
-0.0236887 -0.0128331 -0.0128331
-0.0266319 -0.0154214 -0.0154214
-0.0346597 -0.0198846 -0.0198846
-0.0414761 -0.0264618 -0.0264618
-0.0294312 -0.0235182 -0.0235182
-0.0245126 -0.016926 -0.016926
-0.0380685 -0.0230306 -0.0230306
-0.0354363 -0.0248701 -0.0248701
-0.0269754 -0.0200796 -0.0200796
-0.0295715 -0.0182889 -0.0182889
-0.0325062 -0.0214375 -0.0214375
-0.0414761 -0.0264618 -0.0264618
-0.0482849 -0.0341762 -0.0341762
-0.0343216 -0.0312529 -0.0312529
-0.0294312 -0.0235182 -0.0235182
-0.0448822 -0.0301764 -0.0301764
-0.0412832 -0.032594 -0.032594
-0.0318797 -0.0272425 -0.0272425
-0.0354363 -0.0248701 -0.0248701
-0.0383622 -0.0285888 -0.0285888
-0.0482849 -0.0341762 -0.0341762
-0.0550741 -0.0430352 -0.0430352
-0.039188 -0.0401331 -0.0401331
-0.0343216 -0.0312529 -0.0312529
-0.0516824 -0.0384627 -0.0384627
-0.0471087 -0.0414628 -0.0414628
-0.0367577 -0.03555 -0.03555
-0.0412832 -0.032594 -0.032594
-0.0441987 -0.0368854 -0.0368854
-0.0550741 -0.0430352 -0.0430352
-0.0618388 -0.0530343 -0.0530343
-0.0440317 -0.0501552 -0.0501552
-0.039188 -0.0401331 -0.0401331
-0.0584598 -0.0478925 -0.0478925
-0.0529114 -0.0514734 -0.0514734
-0.0416126 -0.0450018 -0.0450018
-0.0471087 -0.0414628 -0.0414628
-0.050013 -0.0463257 -0.0463257
-0.0618388 -0.0530343 -0.0530343
-0.0685757 -0.0641694 -0.0641694
-0.048854 -0.0613142 -0.0613142
-0.0440317 -0.0501552 -0.0501552
-0.0652108 -0.0584602 -0.0584602
-0.0586901 -0.0626207 -0.0626207
-0.0464455 -0.055593 -0.055593
-0.0529114 -0.0514734 -0.0514734
-0.0558038 -0.0569054 -0.0569054
-0.0685757 -0.0641694 -0.0641694
-0.0752834 -0.0764342 -0.0764342
-0.0536557 -0.0736037 -0.0736037
-0.048854 -0.0613142 -0.0613142
-0.0719332 -0.070161 -0.070161
-0.0644442 -0.0748984 -0.0748984
-0.0512574 -0.067318 -0.067318
-0.0586901 -0.0626207 -0.0626207
-0.0615702 -0.0686186 -0.0686186
-0.0752834 -0.0764342 -0.0764342
-0.0819616 -0.0898226 -0.0898226
-0.0584373 -0.0870177 -0.0870177
-0.0536557 -0.0736037 -0.0736037
-0.0786262 -0.0829883 -0.0829883
-0.0701738 -0.0883001 -0.0883001
-0.056049 -0.0801705 -0.0801705
-0.0644442 -0.0748984 -0.0748984
-0.0673121 -0.0814591 -0.0814591
-0.0819616 -0.0898226 -0.0898226
-0.0886103 -0.104328 -0.104328
-0.0631994 -0.10155 -0.10155
-0.0584373 -0.0870177 -0.0870177
-0.0852896 -0.0969362 -0.0969362
-0.075879 -0.10282 -0.10282
-0.0608207 -0.0941443 -0.0941443
-0.0701738 -0.0883001 -0.0883001
-0.0730294 -0.0954205 -0.0954205
-0.0886103 -0.104328 -0.104328
-0.0952297 -0.119945 -0.119945
-0.0679424 -0.117194 -0.117194
-0.0631994 -0.10155 -0.10155
-0.0919236 -0.111998 -0.111998
-0.0815601 -0.118451 -0.118451
-0.0655732 -0.109233 -0.109233
-0.075879 -0.10282 -0.10282
-0.0787225 -0.110496 -0.110496
-0.0952297 -0.119945 -0.119945
-0.10182 -0.136667 -0.136667
-0.0726668 -0.133943 -0.133943
-0.0679424 -0.117194 -0.117194
-0.0985285 -0.128168 -0.128168
-0.0872175 -0.135187 -0.135187
-0.0703069 -0.12543 -0.12543
-0.0815601 -0.118451 -0.118451
-0.0843917 -0.126681 -0.126681
-0.10182 -0.136667 -0.136667
-0.108382 -0.154487 -0.154487
-0.077373 -0.151792 -0.151792
-0.0726668 -0.133943 -0.133943
-0.105105 -0.14544 -0.14544
-0.0928516 -0.153022 -0.153022
-0.0750222 -0.142731 -0.142731
-0.0872175 -0.135187 -0.135187
-0.0900374 -0.143968 -0.143968
-0.108382 -0.154487 -0.154487
-0.114916 -0.173401 -0.173401
-0.0820615 -0.170735 -0.170735
-0.077373 -0.151792 -0.151792
-0.111653 -0.163808 -0.163808
-0.0984628 -0.171951 -0.171951
-0.0797195 -0.161127 -0.161127
-0.0928516 -0.153022 -0.153022
-0.0956601 -0.16235 -0.16235
-0.114916 -0.173401 -0.173401
-0.121423 -0.193401 -0.193401
-0.0867327 -0.190765 -0.190765
-0.0820615 -0.170735 -0.170735
-0.118173 -0.183266 -0.183266
-0.104052 -0.191967 -0.191967
-0.0843993 -0.180615 -0.180615
-0.0984628 -0.171951 -0.171951
-0.10126 -0.181824 -0.181824
-0.121423 -0.193401 -0.193401
-0.127902 -0.214482 -0.214482
-0.091387 -0.211877 -0.211877
-0.0867327 -0.190765 -0.190765
-0.124666 -0.203807 -0.203807
-0.109618 -0.213064 -0.213064
-0.089062 -0.201186 -0.201186
-0.104052 -0.191967 -0.191967
-0.106838 -0.202381 -0.202381
-0.127902 -0.214482 -0.214482
-0.134355 -0.236638 -0.236638
-0.0960249 -0.234064 -0.234064
-0.091387 -0.211877 -0.211877
-0.131132 -0.225426 -0.225426
-0.115164 -0.235236 -0.235236
-0.093708 -0.222836 -0.222836
-0.109618 -0.213064 -0.213064
-0.112394 -0.224016 -0.224016
-0.134355 -0.236638 -0.236638
-0.140781 -0.259862 -0.259862
-0.100647 -0.25732 -0.25732
-0.0960249 -0.234064 -0.234064
-0.137571 -0.248117 -0.248117
-0.120688 -0.258477 -0.258477
-0.0983377 -0.245559 -0.245559
-0.115164 -0.235236 -0.235236
-0.117928 -0.246723 -0.246723
-0.140781 -0.259862 -0.259862
-0.147181 -0.28415 -0.28415
-0.105253 -0.28164 -0.28164
-0.100647 -0.25732 -0.25732
-0.143984 -0.271873 -0.271873
-0.126191 -0.282781 -0.282781
-0.102952 -0.269348 -0.269348
-0.120688 -0.258477 -0.258477
-0.123442 -0.270497 -0.270497
-0.147181 -0.28415 -0.28415
-0.153556 -0.309493 -0.309493
-0.109843 -0.307018 -0.307018
-0.105253 -0.28164 -0.28164
-0.150372 -0.29669 -0.29669
-0.131673 -0.308143 -0.308143
-0.10755 -0.294197 -0.294197
-0.126191 -0.282781 -0.282781
-0.128935 -0.29533 -0.29533
-0.153556 -0.309493 -0.309493
-0.159906 -0.335888 -0.335888
-0.114419 -0.333446 -0.333446
-0.109843 -0.307018 -0.307018
-0.156734 -0.32256 -0.32256
-0.137136 -0.334555 -0.334555
-0.112133 -0.320101 -0.320101
-0.131673 -0.308143 -0.308143
-0.134407 -0.321218 -0.321218
-0.159906 -0.335888 -0.335888
-0.16623 -0.363327 -0.363327
-0.118981 -0.36092 -0.36092
-0.114419 -0.333446 -0.333446
-0.163071 -0.349477 -0.349477
-0.142579 -0.362012 -0.362012
-0.116702 -0.347053 -0.347053
-0.137136 -0.334555 -0.334555
-0.13986 -0.348153 -0.348153
-0.16623 -0.363327 -0.363327
-0.172531 -0.391805 -0.391805
-0.123528 -0.389433 -0.389433
-0.118981 -0.36092 -0.36092
-0.169384 -0.377437 -0.377437
-0.148003 -0.390508 -0.390508
-0.121256 -0.375047 -0.375047
-0.142579 -0.362012 -0.362012
-0.145293 -0.376131 -0.376131
-0.172531 -0.391805 -0.391805
-0.178807 -0.421316 -0.421316
-0.128061 -0.41898 -0.41898
-0.123528 -0.389433 -0.389433
-0.175672 -0.406432 -0.406432
-0.153408 -0.420038 -0.420038
-0.125796 -0.404078 -0.404078
-0.148003 -0.390508 -0.390508
-0.150708 -0.405144 -0.405144
-0.178807 -0.421316 -0.421316
-0.18506 -0.451853 -0.451853
-0.132581 -0.449553 -0.449553
-0.128061 -0.41898 -0.41898
-0.181936 -0.436457 -0.436457
-0.158794 -0.450594 -0.450594
-0.130323 -0.434138 -0.434138
-0.153408 -0.420038 -0.420038
-0.156103 -0.435188 -0.435188
-0.18506 -0.451853 -0.451853
-0.191289 -0.483411 -0.483411
-0.137088 -0.481148 -0.481148
-0.132581 -0.449553 -0.449553
-0.188177 -0.467505 -0.467505
-0.164162 -0.482171 -0.482171
-0.134836 -0.465223 -0.465223
-0.158794 -0.450594 -0.450594
-0.16148 -0.466255 -0.466255
-0.191289 -0.483411 -0.483411
-0.197495 -0.515983 -0.515983
-0.141581 -0.513758 -0.513758
-0.137088 -0.481148 -0.481148
-0.194395 -0.499571 -0.499571
-0.169512 -0.514762 -0.514762
-0.139336 -0.497326 -0.497326
-0.164162 -0.482171 -0.482171
-0.166839 -0.49834 -0.49834
-0.197495 -0.515983 -0.515983
-0.203678 -0.549564 -0.549564
-0.146063 -0.547377 -0.547377
-0.141581 -0.513758 -0.513758
-0.20059 -0.532648 -0.532648
-0.174844 -0.548363 -0.548363
-0.143824 -0.530442 -0.530442
-0.169512 -0.514762 -0.514762
-0.17218 -0.531437 -0.531437
-0.203678 -0.549564 -0.549564
-0.209839 -0.584148 -0.584148
-0.150532 -0.581999 -0.581999
-0.146063 -0.547377 -0.547377
-0.206762 -0.566731 -0.566731
-0.180159 -0.582967 -0.582967
-0.148299 -0.564563 -0.564563
-0.174844 -0.548363 -0.548363
-0.177504 -0.56554 -0.56554
-0.209839 -0.584148 -0.584148
-0.215978 -0.619728 -0.619728
-0.154989 -0.617618 -0.617618
-0.150532 -0.581999 -0.581999
-0.212912 -0.601814 -0.601814
-0.185457 -0.618567 -0.618567
-0.152762 -0.599684 -0.599684
-0.180159 -0.582967 -0.582967
-0.18281 -0.600643 -0.600643
-0.215978 -0.619728 -0.619728
-0.222095 -0.656299 -0.656299
-0.159435 -0.654229 -0.654229
-0.154989 -0.617618 -0.617618
-0.21904 -0.63789 -0.63789
-0.190739 -0.655158 -0.655158
-0.157214 -0.6358 -0.6358
-0.185457 -0.618567 -0.618567
-0.1881 -0.636739 -0.636739
-0.222095 -0.656299 -0.656299
-0.228191 -0.693854 -0.693854
-0.16387 -0.691824 -0.691824
-0.159435 -0.654229 -0.654229
-0.225146 -0.674954 -0.674954
-0.196004 -0.692734 -0.692734
-0.161654 -0.672903 -0.672903
-0.190739 -0.655158 -0.655158
-0.193373 -0.673823 -0.673823
-0.228191 -0.693854 -0.693854
-0.234265 -0.732388 -0.732388
-0.168294 -0.730398 -0.730398
-0.16387 -0.691824 -0.691824
-0.231231 -0.712999 -0.712999
-0.201253 -0.731289 -0.731289
-0.166083 -0.710989 -0.710989
-0.196004 -0.692734 -0.692734
-0.19863 -0.711889 -0.711889
-0.234265 -0.732388 -0.732388
-0.240319 -0.771894 -0.771894
-0.172707 -0.769945 -0.769945
-0.168294 -0.730398 -0.730398
-0.237295 -0.752019 -0.752019
-0.206486 -0.770816 -0.770816
-0.170502 -0.750051 -0.750051
-0.201253 -0.731289 -0.731289
-0.203871 -0.750931 -0.750931
-0.240319 -0.771894 -0.771894
-0.246352 -0.812366 -0.812366
-0.177109 -0.81046 -0.81046
-0.172707 -0.769945 -0.769945
-0.243338 -0.79201 -0.79201
-0.211704 -0.81131 -0.81131
-0.174909 -0.790082 -0.790082
-0.206486 -0.770816 -0.770816
-0.209097 -0.790943 -0.790943
-0.246352 -0.812366 -0.812366
-0.252364 -0.853799 -0.853799
-0.181502 -0.851935 -0.851935
-0.177109 -0.81046 -0.81046
-0.249361 -0.832963 -0.832963
-0.216906 -0.852765 -0.852765
-0.179307 -0.831077 -0.831077
-0.211704 -0.81131 -0.81131
-0.214307 -0.831918 -0.831918
-0.252364 -0.853799 -0.853799
-0.258357 -0.896187 -0.896187
-0.185885 -0.894364 -0.894364
-0.181502 -0.851935 -0.851935
-0.255363 -0.874874 -0.874874
-0.222094 -0.895174 -0.895174
-0.183694 -0.87303 -0.87303
-0.216906 -0.852765 -0.852765
-0.219502 -0.87385 -0.87385
-0.258357 -0.896187 -0.896187
-0.264329 -0.939523 -0.939523
-0.190258 -0.937743 -0.937743
-0.185885 -0.894364 -0.894364
-0.261346 -0.917737 -0.917737
-0.227267 -0.938532 -0.938532
-0.188072 -0.915936 -0.915936
-0.222094 -0.895174 -0.895174
-0.224682 -0.916735 -0.916735
-0.264329 -0.939523 -0.939523
-0.270282 -0.983801 -0.983801
-0.194621 -0.982065 -0.982065
-0.190258 -0.937743 -0.937743
-0.267308 -0.961544 -0.961544
-0.232425 -0.982833 -0.982833
-0.192441 -0.959786 -0.959786
-0.227267 -0.938532 -0.938532
-0.229848 -0.960565 -0.960565
-0.270282 -0.983801 -0.983801
-0.276216 -1.02902 -1.02902
-0.198976 -1.02732 -1.02732
-0.194621 -0.982065 -0.982065
-0.273252 -1.00629 -1.00629
-0.237569 -1.02807 -1.02807
-0.1968 -1.00458 -1.00458
-0.232425 -0.982833 -0.982833
-0.234999 -1.00533 -1.00533
-0.276216 -1.02902 -1.02902
-0.282131 -1.07516 -1.07516
-0.203322 -1.07351 -1.07351
-0.198976 -1.02732 -1.02732
-0.279176 -1.05197 -1.05197
-0.242699 -1.07424 -1.07424
-0.20115 -1.0503 -1.0503
-0.237569 -1.02807 -1.02807
-0.240136 -1.05104 -1.05104
-0.282131 -1.07516 -1.07516
-0.288026 -1.12223 -1.12223
-0.207659 -1.12063 -1.12063
-0.203322 -1.07351 -1.07351
-0.285081 -1.09858 -1.09858
-0.247816 -1.12133 -1.12133
-0.205492 -1.09695 -1.09695
-0.242699 -1.07424 -1.07424
-0.245259 -1.09767 -1.09767
-0.288026 -1.12223 -1.12223
-0.293903 -1.17022 -1.17022
-0.211988 -1.16866 -1.16866
-0.207659 -1.12063 -1.12063
-0.290967 -1.14611 -1.14611
-0.252919 -1.16934 -1.16934
-0.209825 -1.14453 -1.14453
-0.247816 -1.12133 -1.12133
-0.250369 -1.14522 -1.14522
-0.293903 -1.17022 -1.17022
-0.299762 -1.21912 -1.21912
-0.216308 -1.2176 -1.2176
-0.211988 -1.16866 -1.16866
-0.296835 -1.19455 -1.19455
-0.258008 -1.21826 -1.21826
-0.214149 -1.19302 -1.19302
-0.252919 -1.16934 -1.16934
-0.255465 -1.19369 -1.19369
-0.299762 -1.21912 -1.21912
-0.305602 -1.26892 -1.26892
-0.220621 -1.26745 -1.26745
-0.216308 -1.2176 -1.2176
-0.302684 -1.24391 -1.24391
-0.263085 -1.26809 -1.26809
-0.218466 -1.24242 -1.24242
-0.258008 -1.21826 -1.21826
-0.260548 -1.24306 -1.24306
-0.305602 -1.26892 -1.26892
-0.311425 -1.31963 -1.31963
-0.224926 -1.31821 -1.31821
-0.220621 -1.26745 -1.26745
-0.308516 -1.29416 -1.29416
-0.268148 -1.31882 -1.31882
-0.222774 -1.29272 -1.29272
-0.263085 -1.26809 -1.26809
-0.265618 -1.29335 -1.29335
-0.311425 -1.31963 -1.31963
-0.317229 -1.37123 -1.37123
-0.229223 -1.36985 -1.36985
-0.224926 -1.31821 -1.31821
-0.314329 -1.34532 -1.34532
-0.273199 -1.37045 -1.37045
-0.227075 -1.34392 -1.34392
-0.268148 -1.31882 -1.31882
-0.270675 -1.34452 -1.34452
-0.317229 -1.37123 -1.37123
-0.323016 -1.42372 -1.42372
-0.233513 -1.42239 -1.42239
-0.229223 -1.36985 -1.36985
-0.320125 -1.39736 -1.39736
-0.278237 -1.42296 -1.42296
-0.231369 -1.39601 -1.39601
-0.273199 -1.37045 -1.37045
-0.27572 -1.39659 -1.39659
-0.323016 -1.42372 -1.42372
-0.328785 -1.47709 -1.47709
-0.237796 -1.47581 -1.47581
-0.233513 -1.42239 -1.42239
-0.325903 -1.45029 -1.45029
-0.283263 -1.47635 -1.47635
-0.235655 -1.44899 -1.44899
-0.278237 -1.42296 -1.42296
-0.280752 -1.44955 -1.44955
-0.328785 -1.47709 -1.47709
-0.334538 -1.53134 -1.53134
-0.242071 -1.5301 -1.5301
-0.237796 -1.47581 -1.47581
-0.331664 -1.5041 -1.5041
-0.288277 -1.53063 -1.53063
-0.239934 -1.50284 -1.50284
-0.283263 -1.47635 -1.47635
-0.285772 -1.50338 -1.50338
-0.334538 -1.53134 -1.53134
-0.340273 -1.58645 -1.58645
-0.24634 -1.58527 -1.58527
-0.242071 -1.5301 -1.5301
-0.337407 -1.55879 -1.55879
-0.293279 -1.58577 -1.58577
-0.244207 -1.55757 -1.55757
-0.288277 -1.53063 -1.53063
-0.29078 -1.55809 -1.55809
-0.340273 -1.58645 -1.58645
-0.345991 -1.64244 -1.64244
-0.250602 -1.64129 -1.64129
-0.24634 -1.58527 -1.58527
-0.343134 -1.61434 -1.61434
-0.298269 -1.64177 -1.64177
-0.248472 -1.61317 -1.61317
-0.293279 -1.58577 -1.58577
-0.295776 -1.61366 -1.61366
-0.345991 -1.64244 -1.64244
-0.351692 -1.69927 -1.69927
-0.254858 -1.69818 -1.69818
-0.250602 -1.64129 -1.64129
-0.348844 -1.67075 -1.67075
-0.303248 -1.69864 -1.69864
-0.252731 -1.66963 -1.66963
-0.298269 -1.64177 -1.64177
-0.30076 -1.6701 -1.6701
-0.351692 -1.69927 -1.69927
-0.357377 -1.75697 -1.75697
-0.259107 -1.75592 -1.75592
-0.254858 -1.69818 -1.69818
-0.354537 -1.72801 -1.72801
-0.308215 -1.75635 -1.75635
-0.256983 -1.72695 -1.72695
-0.303248 -1.69864 -1.69864
-0.305733 -1.72739 -1.72739
-0.357377 -1.75697 -1.75697
-0.363045 -1.8155 -1.8155
-0.26335 -1.81451 -1.81451
-0.259107 -1.75592 -1.75592
-0.360213 -1.78613 -1.78613
-0.31317 -1.81492 -1.81492
-0.261229 -1.78511 -1.78511
-0.308215 -1.75635 -1.75635
-0.310694 -1.78553 -1.78553
-0.363045 -1.8155 -1.8155
-0.368697 -1.87488 -1.87488
-0.267587 -1.87393 -1.87393
-0.26335 -1.81451 -1.81451
-0.365873 -1.84509 -1.84509
-0.318115 -1.87432 -1.87432
-0.265469 -1.84412 -1.84412
-0.31317 -1.81492 -1.81492
-0.315644 -1.84451 -1.84451
-0.368697 -1.87488 -1.87488
-0.374333 -1.93509 -1.93509
-0.271818 -1.93419 -1.93419
-0.267587 -1.87393 -1.87393
-0.371517 -1.90488 -1.90488
-0.323048 -1.93455 -1.93455
-0.269703 -1.90396 -1.90396
-0.318115 -1.87432 -1.87432
-0.320583 -1.90433 -1.90433
-0.374333 -1.93509 -1.93509
-0.379953 -1.99613 -1.99613
-0.276043 -1.99528 -1.99528
-0.271818 -1.93419 -1.93419
-0.377145 -1.96551 -1.96551
-0.327971 -1.99562 -1.99562
-0.273931 -1.96463 -1.96463
-0.323048 -1.93455 -1.93455
-0.325511 -1.96498 -1.96498
-0.379953 -1.99613 -1.99613
-0.385556 -2.05799 -2.05799
-0.280263 -2.05719 -2.05719
-0.276043 -1.99528 -1.99528
-0.382756 -2.02696 -2.02696
-0.332882 -2.05751 -2.05751
-0.278154 -2.02613 -2.02613
-0.327971 -1.99562 -1.99562
-0.330428 -2.02646 -2.02646
-0.385556 -2.05799 -2.05799
-0.391144 -2.12067 -2.12067
-0.284477 -2.11992 -2.11992
-0.280263 -2.05719 -2.05719
-0.388352 -2.08923 -2.08923
-0.337783 -2.12021 -2.12021
-0.28237 -2.08845 -2.08845
-0.332882 -2.05751 -2.05751
-0.335334 -2.08876 -2.08876
-0.391144 -2.12067 -2.12067
-0.396717 -2.18416 -2.18416
-0.288685 -2.18346 -2.18346
-0.284477 -2.11992 -2.11992
-0.393932 -2.15231 -2.15231
-0.342673 -2.18372 -2.18372
-0.286581 -2.15159 -2.15159
-0.337783 -2.12021 -2.12021
-0.34023 -2.15186 -2.15186
-0.396717 -2.18416 -2.18416
-0.402273 -2.24845 -2.24845
-0.292888 -2.2478 -2.2478
-0.288685 -2.18346 -2.18346
-0.399497 -2.2162 -2.2162
-0.347553 -2.24804 -2.24804
-0.290787 -2.21553 -2.21553
-0.342673 -2.18372 -2.18372
-0.345115 -2.21578 -2.21578
-0.402273 -2.24845 -2.24845
-0.407814 -2.31354 -2.31354
-0.297086 -2.31294 -2.31294
-0.292888 -2.2478 -2.2478
-0.405046 -2.28089 -2.28089
-0.352423 -2.31315 -2.31315
-0.294988 -2.28027 -2.28027
-0.347553 -2.24804 -2.24804
-0.349989 -2.2805 -2.2805
-0.407814 -2.31354 -2.31354
-0.41334 -2.37942 -2.37942
-0.301279 -2.37887 -2.37887
-0.297086 -2.31294 -2.31294
-0.410579 -2.34638 -2.34638
-0.357282 -2.37906 -2.37906
-0.299183 -2.3458 -2.3458
-0.352423 -2.31315 -2.31315
-0.354854 -2.34601 -2.34601
-0.41334 -2.37942 -2.37942
-0.418851 -2.44608 -2.44608
-0.305466 -2.44558 -2.44558
-0.301279 -2.37887 -2.37887
-0.416097 -2.41265 -2.41265
-0.362131 -2.44575 -2.44575
-0.303373 -2.41213 -2.41213
-0.357282 -2.37906 -2.37906
-0.359708 -2.41231 -2.41231
-0.418851 -2.44608 -2.44608
-0.424346 -2.51353 -2.51353
-0.309649 -2.51308 -2.51308
-0.305466 -2.44558 -2.44558
-0.4216 -2.47971 -2.47971
-0.36697 -2.51322 -2.51322
-0.307558 -2.47923 -2.47923
-0.362131 -2.44575 -2.44575
-0.364552 -2.47939 -2.47939
-0.424346 -2.51353 -2.51353
-0.429826 -2.58175 -2.58175
-0.313827 -2.58135 -2.58135
-0.309649 -2.51308 -2.51308
-0.427088 -2.54754 -2.54754
-0.371799 -2.58147 -2.58147
-0.311738 -2.54712 -2.54712
-0.36697 -2.51322 -2.51322
-0.369386 -2.54725 -2.54725
-0.429826 -2.58175 -2.58175
-0.435291 -2.65074 -2.65074
-0.318 -2.65039 -2.65039
-0.313827 -2.58135 -2.58135
-0.43256 -2.61615 -2.61615
-0.376618 -2.65048 -2.65048
-0.315914 -2.61577 -2.61577
-0.371799 -2.58147 -2.58147
-0.37421 -2.61588 -2.61588
-0.435291 -2.65074 -2.65074
-0.440741 -2.72049 -2.72049
-0.322168 -2.72019 -2.72019
-0.318 -2.65039 -2.65039
-0.438018 -2.68552 -2.68552
-0.381427 -2.72026 -2.72026
-0.320084 -2.68519 -2.68519
-0.376618 -2.65048 -2.65048
-0.379024 -2.68528 -2.68528
-0.440741 -2.72049 -2.72049
-0.446176 -2.79099 -2.79099
-0.326331 -2.79075 -2.79075
-0.322168 -2.72019 -2.72019
-0.44346 -2.75565 -2.75565
-0.386226 -2.79079 -2.79079
-0.32425 -2.75537 -2.75537
-0.381427 -2.72026 -2.72026
-0.383828 -2.75543 -2.75543
-0.446176 -2.79099 -2.79099
-0.451596 -2.86225 -2.86225
-0.33049 -2.86205 -2.86205
-0.326331 -2.79075 -2.79075
-0.448888 -2.82653 -2.82653
-0.391015 -2.86207 -2.86207
-0.328411 -2.82631 -2.82631
-0.386226 -2.79079 -2.79079
-0.388622 -2.82634 -2.82634
-0.451596 -2.86225 -2.86225
-0.457001 -2.93425 -2.93425
-0.334644 -2.9341 -2.9341
-0.33049 -2.86205 -2.86205
-0.4543 -2.89815 -2.89815
-0.395795 -2.9341 -2.9341
-0.332567 -2.89798 -2.89798
-0.391015 -2.86207 -2.86207
-0.393407 -2.89799 -2.89799
-0.457001 -2.93425 -2.93425
-0.462392 -3.00698 -3.00698