<?xml version="1.0"?>
<VTKFile type="UnstructuredGrid">
  <UnstructuredGrid>
  <Piece NumberOfPoints="12411"  NumberOfCells="1379">
    <Points>
      <DataArray type="Float64" NumberOfComponents="3" format="ascii">
0 0 0
2.52653 -0.00574058 0
2.53119 4.28378 0
0 4.28571 0
1.26275 -0.00358239 0
2.52938 2.13939 0
1.2657 4.28502 0
0 2.14286 0
1.26489 2.14133 0
2.52653 -0.00574058 0
5.05461 -0.00995914 0
5.0618 4.28013 0
2.53119 4.28378 0
3.79056 -0.00777014 0
5.05839 2.1353 0
3.79653 4.28213 0
2.52938 2.13939 0
3.79386 2.13741 0
5.05461 -0.00995914 0
7.5826 -0.0150498 0
7.59235 4.2751 0
5.0618 4.28013 0
6.31863 -0.012355 0
7.58753 2.13019 0
6.32707 4.27779 0
5.05839 2.1353 0
6.32295 2.13292 0
7.5826 -0.0150498 0
10.1105 -0.0216047 0
10.1229 4.26856 0
7.59235 4.2751 0
8.84657 -0.0181288 0
10.1167 2.12365 0
8.85763 4.27203 0
7.58753 2.13019 0
8.85213 2.12712 0
10.1105 -0.0216047 0
12.6384 -0.0297588 0
12.6536 4.26038 0
10.1229 4.26856 0
11.3744 -0.0254763 0
12.646 2.11548 0
11.3882 4.26468 0
10.1167 2.12365 0
11.3814 2.11978 0
12.6384 -0.0297588 0
15.1662 -0.0396037 0
15.1843 4.25051 0
12.6536 4.26038 0
13.9023 -0.0344678 0
15.1753 2.10563 0
13.9189 4.25566 0
12.646 2.11548 0
13.9106 2.11077 0
15.1662 -0.0396037 0
17.694 -0.0511514 0
17.715 4.23892 0
15.1843 4.25051 0
16.4301 -0.0451641 0
17.7045 2.09407 0
16.4496 4.24493 0
15.1753 2.10563 0
16.4399 2.10006 0
17.694 -0.0511514 0
20.2219 -0.064413 0
20.2457 4.22563 0
17.715 4.23892 0
18.958 -0.0575681 0
20.2339 2.08079 0
18.9804 4.23249 0
17.7045 2.09407 0
18.9692 2.08764 0
20.2219 -0.064413 0
22.7498 -0.0793814 0
22.7765 4.21062 0
20.2457 4.22563 0
21.4859 -0.0716843 0
22.7632 2.0658 0
21.5111 4.21834 0
20.2339 2.08079 0
21.4985 2.07351 0
22.7498 -0.0793814 0
25.2778 -0.0960506 0
25.3074 4.19391 0
22.7765 4.21062 0
24.0138 -0.087504 0
25.2926 2.04911 0
24.0419 4.20247 0
22.7632 2.0658 0
24.0279 2.05767 0
25.2778 -0.0960506 0
27.8058 -0.114411 0
27.8382 4.1755 0
25.3074 4.19391 0
26.5418 -0.10502 0
27.822 2.03073 0
26.5728 4.18492 0
25.2926 2.04911 0
26.5573 2.04013 0
27.8058 -0.114411 0
30.3338 -0.134453 0
30.3691 4.15541 0
27.8382 4.1755 0
29.0698 -0.124223 0
30.3515 2.01066 0
29.1036 4.16567 0
27.822 2.03073 0
29.0867 2.0209 0
30.3338 -0.134453 0
32.8619 -0.156169 0
32.9 4.13365 0
30.3691 4.15541 0
31.5978 -0.145102 0
32.881 1.98892 0
31.6345 4.14474 0
30.3515 2.01066 0
31.6162 2 0
32.8619 -0.156169 0
35.39 -0.179547 0
35.4309 4.11022 0
32.9 4.13365 0
34.1259 -0.16765 0
35.4105 1.96552 0
34.1654 4.12215 0
32.881 1.98892 0
34.1457 1.97743 0
35.39 -0.179547 0
37.9181 -0.20458 0
37.9618 4.08514 0
35.4309 4.11022 0
36.654 -0.191857 0
37.94 1.94046 0
36.6964 4.09789 0
35.4105 1.96552 0
36.6752 1.95319 0
37.9181 -0.20458 0
40.4463 -0.231257 0
40.4928 4.05841 0
37.9618 4.08514 0
39.1822 -0.217713 0
40.4696 1.91375 0
39.2273 4.07198 0
37.94 1.94046 0
39.2048 1.92731 0
40.4463 -0.231257 0
42.9745 -0.259571 0
43.0238 4.03004 0
40.4928 4.05841 0
41.7104 -0.24521 0
42.9992 1.88541 0
41.7583 4.04443 0
40.4696 1.91375 0
41.7344 1.89979 0
42.9745 -0.259571 0
45.5028 -0.289512 0
45.5548 4.00005 0
43.0238 4.03004 0
44.2386 -0.274339 0
45.5288 1.85544 0
44.2893 4.01525 0
42.9992 1.88541 0
44.264 1.87063 0
45.5028 -0.289512 0
48.0311 -0.321071 0
48.0858 3.96843 0
45.5548 4.00005 0
46.7669 -0.30509 0
48.0585 1.82385 0
46.8203 3.98444 0
45.5288 1.85544 0
46.7936 1.83985 0
48.0311 -0.321071 0
50.5594 -0.354238 0
50.6169 3.9352 0
48.0858 3.96843 0
49.2952 -0.337454 0
50.5882 1.79065 0
49.3513 3.95202 0
48.0585 1.82385 0
49.3233 1.80745 0
50.5594 -0.354238 0
53.0877 -0.389006 0
53.1479 3.90037 0
50.6169 3.9352 0
51.8236 -0.371423 0
53.1179 1.75586 0
51.8824 3.91799 0
50.5882 1.79065 0
51.853 1.77345 0
53.0877 -0.389006 0
55.6161 -0.425365 0
55.679 3.86395 0
53.1479 3.90037 0
54.3519 -0.406987 0
55.6476 1.71946 0
54.4135 3.88236 0
53.1179 1.75586 0
54.3827 1.73786 0
55.6161 -0.425365 0
58.1445 -0.463306 0
58.2101 3.82595 0
55.679 3.86395 0
56.8803 -0.444138 0
58.1774 1.68149 0
56.9445 3.84515 0
55.6476 1.71946 0
56.9125 1.70068 0
58.1445 -0.463306 0
60.673 -0.50282 0
60.7412 3.78637 0
58.2101 3.82595 0
59.4088 -0.482867 0
60.7071 1.64194 0
59.4756 3.80636 0
58.1774 1.68149 0
59.4422 1.66191 0
60.673 -0.50282 0
63.2015 -0.543898 0
63.2723 3.74523 0
60.7412 3.78637 0
61.9372 -0.523164 0
63.2369 1.60083 0
62.0067 3.76599 0
60.7071 1.64194 0
61.972 1.62158 0
63.2015 -0.543898 0
65.73 -0.586531 0
65.8034 3.70253 0
63.2723 3.74523 0
64.4657 -0.56502 0
65.7667 1.55816 0
64.5379 3.72407 0
63.2369 1.60083 0
64.5018 1.57969 0
65.73 -0.586531 0
68.2585 -0.63071 0
68.3346 3.65828 0
65.8034 3.70253 0
66.9942 -0.608427 0
68.2966 1.51395 0
67.069 3.6806 0
65.7667 1.55816 0
67.0317 1.53625 0
68.2585 -0.63071 0
70.7871 -0.676426 0
70.8657 3.61249 0
68.3346 3.65828 0
69.5228 -0.653376 0
70.8264 1.4682 0
69.6002 3.63558 0
68.2966 1.51395 0
69.5615 1.49127 0
70.7871 -0.676426 0
73.3156 -0.72367 0
73.3969 3.56518 0
70.8657 3.61249 0
72.0513 -0.699857 0
73.3563 1.42092 0
72.1313 3.58903 0
70.8264 1.4682 0
72.0914 1.44475 0
73.3156 -0.72367 0
75.8442 -0.772433 0
75.9281 3.51634 0
73.3969 3.56518 0
74.5799 -0.747862 0
75.8862 1.37212 0
74.6625 3.54095 0
73.3563 1.42092 0
74.6213 1.39671 0
75.8442 -0.772433 0
78.3729 -0.822706 0
78.4593 3.46599 0
75.9281 3.51634 0
77.1086 -0.797381 0
78.4161 1.32181 0
77.1937 3.49136 0
75.8862 1.37212 0
77.1512 1.34715 0
78.3729 -0.822706 0
80.9015 -0.87448 0
80.9905 3.41415 0
78.4593 3.46599 0
79.6372 -0.848406 0
80.946 1.26999 0
79.7249 3.44026 0
78.4161 1.32181 0
79.6811 1.29609 0
80.9015 -0.87448 0
83.4302 -0.927746 0
83.5217 3.3608 0
80.9905 3.41415 0
82.1659 -0.900927 0
83.476 1.21669 0
82.2561 3.38766 0
80.946 1.26999 0
82.211 1.24353 0
83.4302 -0.927746 0
85.9589 -0.982495 0
86.0529 3.30598 0
83.5217 3.3608 0
84.6946 -0.954936 0
86.0059 1.1619 0
84.7873 3.33357 0
83.476 1.21669 0
84.741 1.18948 0
85.9589 -0.982495 0
88.4876 -1.03872 0
88.5841 3.24967 0
86.0529 3.30598 0
87.2233 -1.01042 0
88.5359 1.10564 0
87.3185 3.27801 0
86.0059 1.1619 0
87.2709 1.13395 0
88.4876 -1.03872 0
91.0164 -1.09641 0
91.1153 3.19191 0
88.5841 3.24967 0
89.752 -1.06738 0
91.0659 1.04791 0
89.8497 3.22097 0
88.5359 1.10564 0
89.8009 1.07695 0
91.0164 -1.09641 0
93.5452 -1.15555 0
93.6465 3.13268 0
91.1153 3.19191 0
92.2808 -1.1258 0
93.5959 0.98872 0
92.3809 3.16248 0
91.0659 1.04791 0
92.3309 1.01849 0
93.5452 -1.15555 0
96.0739 -1.21614 0
96.1777 3.07201 0
93.6465 3.13268 0
94.8095 -1.18567 0
96.1259 0.928087 0
94.9121 3.10253 0
93.5959 0.98872 0
94.8609 0.958584 0
96.0739 -1.21614 0
98.6027 -1.27817 0
98.709 3.0099 0
96.1777 3.07201 0
97.3383 -1.24698 0
98.6559 0.866015 0
97.4434 3.04113 0
96.1259 0.928087 0
97.3909 0.897231 0
98.6027 -1.27817 0
101.132 -1.34163 0
101.24 2.94635 0
98.709 3.0099 0
99.8672 -1.30972 0
101.186 0.802514 0
99.9746 2.9783 0
98.6559 0.866015 0
99.9209 0.834443 0
101.132 -1.34163 0
103.66 -1.40651 0
103.771 2.88139 0
101.24 2.94635 0
102.396 -1.37389 0
103.716 0.737593 0
102.506 2.91405 0
101.186 0.802514 0
102.451 0.77023 0
103.66 -1.40651 0
106.189 -1.4728 0
106.303 2.81502 0
103.771 2.88139 0
104.925 -1.43948 0
106.246 0.67126 0
105.037 2.84838 0
103.716 0.737593 0
104.981 0.704602 0
106.189 -1.4728 0
108.718 -1.54049 0
108.834 2.74724 0
106.303 2.81502 0
107.454 -1.50647 0
108.776 0.603524 0
107.568 2.7813 0
106.246 0.67126 0
107.511 0.637566 0
108.718 -1.54049 0
111.247 -1.60957 0
111.365 2.67807 0
108.834 2.74724 0
109.983 -1.57486 0
111.306 0.534395 0
110.1 2.71283 0
108.776 0.603524 0
110.041 0.569133 0
111.247 -1.60957 0
113.776 -1.68004 0
113.896 2.60751 0
111.365 2.67807 0
112.511 -1.64463 0
113.836 0.463882 0
112.631 2.64296 0
111.306 0.534395 0
112.571 0.499311 0
113.776 -1.68004 0
116.305 -1.75188 0
116.428 2.53558 0
113.896 2.60751 0
115.04 -1.71579 0
116.366 0.391993 0
115.162 2.57172 0
113.836 0.463882 0
115.101 0.428109 0
116.305 -1.75188 0
118.834 -1.82509 0
118.959 2.46228 0
116.428 2.53558 0
117.569 -1.78832 0
118.896 0.318738 0
117.693 2.4991 0
116.366 0.391993 0
117.631 0.355536 0
118.834 -1.82509 0
121.363 -1.89966 0
121.49 2.38762 0
118.959 2.46228 0
120.098 -1.86221 0
121.426 0.244126 0
120.225 2.42512 0
118.896 0.318738 0
120.161 0.281601 0
121.363 -1.89966 0
123.892 -1.97557 0
124.021 2.31162 0
121.49 2.38762 0
122.627 -1.93745 0
123.957 0.168165 0
122.756 2.34979 0
121.426 0.244126 0
122.692 0.206313 0
123.892 -1.97557 0
126.421 -2.05283 0
126.553 2.23427 0
124.021 2.31162 0
125.156 -2.01403 0
126.487 0.090865 0
125.287 2.27311 0
123.957 0.168165 0
125.222 0.129682 0
126.421 -2.05283 0
128.95 -2.13141 0
129.084 2.1556 0
126.553 2.23427 0
127.685 -2.09195 0
129.017 0.0122349 0
127.818 2.1951 0
126.487 0.090865 0
127.752 0.0517157 0
128.95 -2.13141 0
131.479 -2.21131 0
131.615 2.0756 0
129.084 2.1556 0
130.214 -2.1712 0
131.547 -0.0677165 0
130.349 2.11576 0
129.017 0.0122349 0
130.282 -0.0275762 0
131.479 -2.21131 0
134.008 -2.29253 0
134.146 1.99429 0
131.615 2.0756 0
132.743 -2.25176 0
134.077 -0.14898 0
132.881 2.03511 0
131.547 -0.0677165 0
132.812 -0.108185 0
134.008 -2.29253 0
136.537 -2.37505 0
136.678 1.91168 0
134.146 1.99429 0
135.272 -2.33363 0
136.607 -0.231547 0
135.412 1.95315 0
134.077 -0.14898 0
135.342 -0.190101 0
136.537 -2.37505 0
139.066 -2.45886 0
139.209 1.82777 0
136.678 1.91168 0
137.801 -2.41679 0
139.137 -0.315408 0
137.943 1.86988 0
136.607 -0.231547 0
137.872 -0.273316 0
139.066 -2.45886 0
141.595 -2.54396 0
141.74 1.74258 0
139.209 1.82777 0
140.33 -2.50125 0
141.667 -0.400554 0
140.474 1.78533 0
139.137 -0.315408 0
140.402 -0.357821 0
141.595 -2.54396 0
144.124 -2.63033 0
144.271 1.65611 0
141.74 1.74258 0
142.859 -2.58698 0
144.198 -0.486976 0
143.006 1.6995 0
141.667 -0.400554 0
142.932 -0.443606 0
144.124 -2.63033 0
146.653 -2.71797 0
146.802 1.56837 0
144.271 1.65611 0
145.388 -2.67399 0
146.728 -0.574665 0
145.537 1.6124 0
144.198 -0.486976 0
145.463 -0.530663 0
146.653 -2.71797 0
149.182 -2.80687 0
149.334 1.47937 0
146.802 1.56837 0
147.917 -2.76226 0
149.258 -0.663612 0
148.068 1.52403 0
[...]
    <PointData>
      <DataArray type="Float64" NumberOfComponents="3" Name="Displacement" format="ascii">
0 0 0
-0.0115427 -0.00574058 -0.00574058
-0.00688503 -0.00193404 -0.00193404
0 0 0
-0.00628294 -0.00358239 -0.00358239
-0.00869545 -0.00346746 -0.00346746
-0.00334048 -0.000691874 -0.000691874
0 0 0
-0.00414644 -0.00152928 -0.00152928
-0.0115427 -0.00574058 -0.00574058
-0.0215293 -0.00995914 -0.00995914
-0.0143417 -0.00558898 -0.00558898
-0.00688503 -0.00193404 -0.00193404
-0.0165499 -0.00777014 -0.00777014
-0.0177556 -0.0075525 -0.0075525
-0.0105778 -0.00358494 -0.00358494
-0.00869545 -0.00346746 -0.00346746
-0.0132511 -0.00544882 -0.00544882
-0.0215293 -0.00995914 -0.00995914
-0.0316087 -0.0150498 -0.0150498
-0.0218662 -0.0106124 -0.0106124
-0.0143417 -0.00558898 -0.00558898
-0.0265507 -0.012355 -0.012355
-0.0266845 -0.0126627 -0.0126627
-0.0181083 -0.00792361 -0.00792361
-0.0177556 -0.0075525 -0.0075525
-0.0222314 -0.00994066 -0.00994066
-0.0316087 -0.0150498 -0.0150498
-0.0417743 -0.0216047 -0.0216047
-0.0293552 -0.0171583 -0.0171583
-0.0218662 -0.0106124 -0.0106124
-0.0366837 -0.0181288 -0.0181288
-0.0355398 -0.0192052 -0.0192052
-0.0256168 -0.0136861 -0.0136861
-0.0266845 -0.0126627 -0.0126627
-0.0311181 -0.0157414 -0.0157414
-0.0417743 -0.0216047 -0.0216047
-0.0519977 -0.0297588 -0.0297588
-0.0367842 -0.0253357 -0.0253357
-0.0293552 -0.0171583 -0.0171583
-0.0468816 -0.0254763 -0.0254763
-0.0443688 -0.0273724 -0.0273724
-0.0330766 -0.0210385 -0.0210385
-0.0355398 -0.0192052 -0.0192052
-0.0399569 -0.0230797 -0.0230797
-0.0519977 -0.0297588 -0.0297588
-0.0622289 -0.0396037 -0.0396037
-0.0441691 -0.0352069 -0.0352069
-0.0367842 -0.0253357 -0.0253357
-0.0571139 -0.0344678 -0.0344678
-0.0531728 -0.0372251 -0.0372251
-0.0404816 -0.0300578 -0.0300578
-0.0443688 -0.0273724 -0.0273724
-0.048774 -0.0320862 -0.0320862
-0.0622289 -0.0396037 -0.0396037
-0.0724511 -0.0511514 -0.0511514
-0.0515141 -0.0467895 -0.0467895
-0.0441691 -0.0352069 -0.0352069
-0.0673422 -0.0451641 -0.0451641
-0.0619521 -0.0487894 -0.0487894
-0.0478463 -0.0407839 -0.0407839
-0.0531728 -0.0372251 -0.0372251
-0.0575658 -0.0427927 -0.0427927
-0.0724511 -0.0511514 -0.0511514
-0.0826462 -0.064413 -0.064413
-0.0588258 -0.0600879 -0.0600879
-0.0515141 -0.0467895 -0.0467895
-0.0775527 -0.0575681 -0.0575681
-0.070702 -0.0620681 -0.0620681
-0.0551739 -0.0532244 -0.0532244
-0.0619521 -0.0487894 -0.0487894
-0.0663309 -0.0552146 -0.0552146
-0.0826462 -0.064413 -0.064413
-0.0928076 -0.0793814 -0.0793814
-0.0661065 -0.0750965 -0.0750965
-0.0588258 -0.0600879 -0.0600879
-0.0877314 -0.0716843 -0.0716843
-0.0794208 -0.0770567 -0.0770567
-0.0624699 -0.0673789 -0.0673789
-0.070702 -0.0620681 -0.0620681
-0.0750654 -0.0693491 -0.0693491
-0.0928076 -0.0793814 -0.0793814
-0.10293 -0.0960506 -0.0960506
-0.0733586 -0.0918077 -0.0918077
-0.0661065 -0.0750965 -0.0750965
-0.097874 -0.087504 -0.087504
-0.0881068 -0.0937473 -0.0937473
-0.069736 -0.0832398 -0.0832398
-0.0794208 -0.0770567 -0.0770567
-0.0837679 -0.0851899 -0.0851899
-0.10293 -0.0960506 -0.0960506
-0.113013 -0.114411 -0.114411
-0.0805834 -0.110212 -0.110212
-0.0733586 -0.0918077 -0.0918077
-0.107977 -0.10502 -0.10502
-0.0967599 -0.11213 -0.11213
-0.0769743 -0.100799 -0.100799
-0.0881068 -0.0937473 -0.0937473
-0.0924375 -0.102728 -0.102728
-0.113013 -0.114411 -0.114411
-0.123056 -0.134453 -0.134453
-0.0877823 -0.1303 -0.1303
-0.0805834 -0.110212 -0.110212
-0.11804 -0.124223 -0.124223
-0.10538 -0.132197 -0.132197
-0.084186 -0.120046 -0.120046
-0.0967599 -0.11213 -0.11213
-0.101074 -0.121954 -0.121954
-0.123056 -0.134453 -0.134453
-0.133059 -0.156169 -0.156169
-0.0949564 -0.152063 -0.152063
-0.0877823 -0.1303 -0.1303
-0.128062 -0.145102 -0.145102
-0.113968 -0.153936 -0.153936
-0.0913724 -0.140973 -0.140973
-0.10538 -0.132197 -0.132197
-0.109678 -0.142858 -0.142858
-0.133059 -0.156169 -0.156169
-0.143022 -0.179547 -0.179547
-0.102107 -0.175491 -0.175491
-0.0949564 -0.152063 -0.152063
-0.138045 -0.16765 -0.16765
-0.122525 -0.177341 -0.177341
-0.0985345 -0.163569 -0.163569
-0.113968 -0.153936 -0.153936
-0.118251 -0.165431 -0.165431
-0.143022 -0.179547 -0.179547
-0.152948 -0.20458 -0.20458
-0.109234 -0.200574 -0.200574
-0.102107 -0.175491 -0.175491
-0.14799 -0.191857 -0.191857
-0.131052 -0.2024 -0.2024
-0.105673 -0.187826 -0.187826
-0.122525 -0.177341 -0.177341
-0.126792 -0.189664 -0.189664
-0.152948 -0.20458 -0.20458
-0.162836 -0.231257 -0.231257
-0.11634 -0.227304 -0.227304
-0.109234 -0.200574 -0.200574
-0.157897 -0.217713 -0.217713
-0.139548 -0.229105 -0.229105
-0.11279 -0.213734 -0.213734
-0.131052 -0.2024 -0.2024
-0.135304 -0.215547 -0.215547
-0.162836 -0.231257 -0.231257
-0.172688 -0.259571 -0.259571
-0.123425 -0.255672 -0.255672
-0.11634 -0.227304 -0.227304
-0.167767 -0.24521 -0.24521
-0.148017 -0.257446 -0.257446
-0.119885 -0.241284 -0.241284
-0.139548 -0.229105 -0.229105
-0.143786 -0.243072 -0.243072
-0.172688 -0.259571 -0.259571
-0.182505 -0.289512 -0.289512
-0.130491 -0.285669 -0.285669
-0.123425 -0.255672 -0.255672
-0.177601 -0.274339 -0.274339
-0.156458 -0.287416 -0.287416
-0.12696 -0.270468 -0.270468
-0.148017 -0.257446 -0.257446
-0.152241 -0.272228 -0.272228
-0.182505 -0.289512 -0.289512
-0.192287 -0.321071 -0.321071
-0.137537 -0.317285 -0.317285
-0.130491 -0.285669 -0.285669
-0.1874 -0.30509 -0.30509
-0.164872 -0.319005 -0.319005
-0.134016 -0.301275 -0.301275
-0.156458 -0.287416 -0.287416
-0.160668 -0.303009 -0.303009
-0.192287 -0.321071 -0.321071
-0.202036 -0.354238 -0.354238
-0.144565 -0.350512 -0.350512
-0.137537 -0.317285 -0.317285
-0.197166 -0.337454 -0.337454
-0.173261 -0.352203 -0.352203
-0.141053 -0.333698 -0.333698
-0.164872 -0.319005 -0.319005
-0.16907 -0.335403 -0.335403
-0.202036 -0.354238 -0.354238
-0.211753 -0.389006 -0.389006
-0.151577 -0.38534 -0.38534
-0.144565 -0.350512 -0.350512
-0.206899 -0.371423 -0.371423
-0.181625 -0.387002 -0.387002
-0.148073 -0.367726 -0.367726
-0.173261 -0.352203 -0.352203
-0.177446 -0.369403 -0.369403
-0.211753 -0.389006 -0.389006
-0.221438 -0.425365 -0.425365
-0.158572 -0.42176 -0.42176
-0.151577 -0.38534 -0.38534
-0.2166 -0.406987 -0.406987
-0.189965 -0.423393 -0.423393
-0.155076 -0.403352 -0.403352
-0.181625 -0.387002 -0.387002
-0.185798 -0.404999 -0.404999
-0.221438 -0.425365 -0.425365
-0.231093 -0.463306 -0.463306
-0.165552 -0.459765 -0.459765
-0.158572 -0.42176 -0.42176
-0.226269 -0.444138 -0.444138
-0.198282 -0.461366 -0.461366
-0.162064 -0.440565 -0.440565
-0.189965 -0.423393 -0.423393
-0.194126 -0.442182 -0.442182
-0.231093 -0.463306 -0.463306
-0.240717 -0.50282 -0.50282
-0.172517 -0.499343 -0.499343
-0.165552 -0.459765 -0.459765
-0.235908 -0.482867 -0.482867
-0.206577 -0.500913 -0.500913
-0.169036 -0.479358 -0.479358
-0.198282 -0.461366 -0.461366
-0.202432 -0.480943 -0.480943
-0.240717 -0.50282 -0.50282
-0.250313 -0.543898 -0.543898
-0.179469 -0.540487 -0.540487
-0.172517 -0.499343 -0.499343
-0.245518 -0.523164 -0.523164
-0.21485 -0.542025 -0.542025
-0.175995 -0.51972 -0.51972
-0.206577 -0.500913 -0.500913
-0.210716 -0.521274 -0.521274
-0.250313 -0.543898 -0.543898
-0.25988 -0.586531 -0.586531
-0.186408 -0.583188 -0.583188
-0.179469 -0.540487 -0.540487
-0.2551 -0.56502 -0.56502
-0.223103 -0.584693 -0.584693
-0.18294 -0.561643 -0.561643
-0.21485 -0.542025 -0.542025
-0.218979 -0.563165 -0.563165
-0.25988 -0.586531 -0.586531
-0.26942 -0.63071 -0.63071
-0.193335 -0.627435 -0.627435
-0.186408 -0.583188 -0.583188
-0.264653 -0.608427 -0.608427
-0.231337 -0.628907 -0.628907
-0.189873 -0.605119 -0.605119
-0.223103 -0.584693 -0.584693
-0.227223 -0.606607 -0.606607
-0.26942 -0.63071 -0.63071
-0.278933 -0.676426 -0.676426
-0.200251 -0.673221 -0.673221
-0.193335 -0.627435 -0.627435
-0.27418 -0.653376 -0.653376
-0.239551 -0.674659 -0.674659
-0.196795 -0.650137 -0.650137
-0.231337 -0.628907 -0.628907
-0.235446 -0.651592 -0.651592
-0.278933 -0.676426 -0.676426
-0.28842 -0.72367 -0.72367
-0.207157 -0.720537 -0.720537
-0.200251 -0.673221 -0.673221
-0.28368 -0.699857 -0.699857
-0.247748 -0.72194 -0.72194
-0.203705 -0.696689 -0.696689
-0.239551 -0.674659 -0.674659
-0.243652 -0.698109 -0.698109
-0.28842 -0.72367 -0.72367
-0.297883 -0.772433 -0.772433
-0.214052 -0.769373 -0.769373
-0.207157 -0.720537 -0.720537
-0.293155 -0.747862 -0.747862
-0.255927 -0.77074 -0.77074
-0.210606 -0.744765 -0.744765
-0.247748 -0.72194 -0.72194
-0.251839 -0.746151 -0.746151
-0.297883 -0.772433 -0.772433
-0.307321 -0.822706 -0.822706
-0.220939 -0.81972 -0.81972
-0.214052 -0.769373 -0.769373
-0.302605 -0.797381 -0.797381
-0.264089 -0.821052 -0.821052
-0.217497 -0.794358 -0.794358
-0.255927 -0.77074 -0.77074
-0.26001 -0.795708 -0.795708
-0.307321 -0.822706 -0.822706
-0.316735 -0.87448 -0.87448
-0.227817 -0.871569 -0.871569
-0.220939 -0.81972 -0.81972
-0.312031 -0.848406 -0.848406
-0.272235 -0.872864 -0.872864
-0.224379 -0.845457 -0.845457
-0.264089 -0.821052 -0.821052
-0.268164 -0.846771 -0.846771
-0.316735 -0.87448 -0.87448
-0.326126 -0.927746 -0.927746
-0.234688 -0.924911 -0.924911
-0.227817 -0.871569 -0.871569
-0.321433 -0.900927 -0.900927
-0.280366 -0.92617 -0.92617
-0.231254 -0.898054 -0.898054
-0.272235 -0.872864 -0.872864
-0.276302 -0.899331 -0.899331
-0.326126 -0.927746 -0.927746
-0.335495 -0.982495 -0.982495
-0.241552 -0.979738 -0.979738
-0.234688 -0.924911 -0.924911
-0.330814 -0.954936 -0.954936
-0.288483 -0.980959 -0.980959
-0.238121 -0.95214 -0.95214
-0.280366 -0.92617 -0.92617
-0.284426 -0.953379 -0.953379
-0.335495 -0.982495 -0.982495
-0.344843 -1.03872 -1.03872
-0.24841 -1.03604 -1.03604
-0.241552 -0.979738 -0.979738
-0.340172 -1.01042 -1.01042
-0.296585 -1.03722 -1.03722
-0.244982 -1.00771 -1.00771
-0.288483 -0.980959 -0.980959
-0.292536 -1.00891 -1.00891
-0.344843 -1.03872 -1.03872
-0.354169 -1.09641 -1.09641
-0.255263 -1.09381 -1.09381
-0.24841 -1.03604 -1.03604
-0.349509 -1.06738 -1.06738
-0.304675 -1.09495 -1.09495
-0.251837 -1.06474 -1.06474
-0.296585 -1.03722 -1.03722
-0.300632 -1.0659 -1.0659
-0.354169 -1.09641 -1.09641
-0.363476 -1.15555 -1.15555
-0.26211 -1.15303 -1.15303
-0.255263 -1.09381 -1.09381
-0.358825 -1.1258 -1.1258
-0.312752 -1.15414 -1.15414
-0.258687 -1.12324 -1.12324
-0.304675 -1.09495 -1.09495
-0.308715 -1.12436 -1.12436
-0.363476 -1.15555 -1.15555
-0.372762 -1.21614 -1.21614
-0.268953 -1.21371 -1.21371
-0.26211 -1.15303 -1.15303
-0.368121 -1.18567 -1.18567
-0.320816 -1.21477 -1.21477
-0.265532 -1.18319 -1.18319
-0.312752 -1.15414 -1.15414
-0.316785 -1.18427 -1.18427
-0.372762 -1.21614 -1.21614
-0.38203 -1.27817 -1.27817
-0.275793 -1.27582 -1.27582
-0.268953 -1.21371 -1.21371
-0.377398 -1.24698 -1.24698
-0.32887 -1.27684 -1.27684
-0.272374 -1.24458 -1.24458
-0.320816 -1.21477 -1.21477
-0.324844 -1.24563 -1.24563
-0.38203 -1.27817 -1.27817
-0.391279 -1.34163 -1.34163
-0.282629 -1.33936 -1.33936
-0.275793 -1.27582 -1.27582
-0.386657 -1.30972 -1.30972
-0.336913 -1.34034 -1.34034
-0.279212 -1.30741 -1.30741
-0.32887 -1.27684 -1.27684
-0.332893 -1.30841 -1.30841
-0.391279 -1.34163 -1.34163
-0.40051 -1.40651 -1.40651
-0.289463 -1.40432 -1.40432
-0.282629 -1.33936 -1.33936
-0.395897 -1.37389 -1.37389
-0.344945 -1.40526 -1.40526
-0.286047 -1.37166 -1.37166
-0.336913 -1.34034 -1.34034
-0.34093 -1.37263 -1.37263
-0.40051 -1.40651 -1.40651
-0.409724 -1.4728 -1.4728
-0.296296 -1.4707 -1.4707
-0.289463 -1.40432 -1.40432
-0.405119 -1.43948 -1.43948
-0.352968 -1.4716 -1.4716
-0.29288 -1.43733 -1.43733
-0.344945 -1.40526 -1.40526
-0.348958 -1.43826 -1.43826
-0.409724 -1.4728 -1.4728
-0.418921 -1.54049 -1.54049
-0.303126 -1.53848 -1.53848
-0.296296 -1.4707 -1.4707
-0.414325 -1.50647 -1.50647
-0.360982 -1.53933 -1.53933
-0.299711 -1.50441 -1.50441
-0.352968 -1.4716 -1.4716
-0.356976 -1.50529 -1.50529
-0.418921 -1.54049 -1.54049
-0.428102 -1.60957 -1.60957
-0.309956 -1.60765 -1.60765
-0.303126 -1.53848 -1.53848
-0.423513 -1.57486 -1.57486
-0.368987 -1.60846 -1.60846
-0.306541 -1.57289 -1.57289
-0.360982 -1.53933 -1.53933
-0.364986 -1.57372 -1.57372
-0.428102 -1.60957 -1.60957
-0.437267 -1.68004 -1.68004
-0.316786 -1.6782 -1.6782
-0.309956 -1.60765 -1.60765
-0.432686 -1.64463 -1.64463
-0.376984 -1.67898 -1.67898
-0.313371 -1.64275 -1.64275
-0.368987 -1.60846 -1.60846
-0.372987 -1.64355 -1.64355
-0.437267 -1.68004 -1.68004
-0.446417 -1.75188 -1.75188
-0.323615 -1.75014 -1.75014
-0.316786 -1.6782 -1.6782
-0.441844 -1.71579 -1.71579
-0.384974 -1.75086 -1.75086
-0.3202 -1.714 -1.714
-0.376984 -1.67898 -1.67898
-0.38098 -1.71475 -1.71475
-0.446417 -1.75188 -1.75188
-0.455552 -1.82509 -1.82509
-0.330446 -1.82343 -1.82343
-0.323615 -1.75014 -1.75014
-0.450986 -1.78832 -1.78832
-0.392957 -1.82412 -1.82412
-0.32703 -1.78662 -1.78662
-0.384974 -1.75086 -1.75086
-0.388966 -1.78732 -1.78732
-0.455552 -1.82509 -1.82509
-0.464673 -1.89966 -1.89966
-0.337277 -1.89809 -1.89809
-0.330446 -1.82343 -1.82343
-0.460114 -1.86221 -1.86221
-0.400933 -1.89873 -1.89873
-0.333861 -1.86059 -1.86059
-0.392957 -1.82412 -1.82412
-0.396946 -1.86126 -1.86126
-0.464673 -1.89966 -1.89966
-0.47378 -1.97557 -1.97557
-0.34411 -1.9741 -1.9741
-0.337277 -1.89809 -1.89809
-0.469228 -1.93745 -1.93745
-0.408903 -1.97469 -1.97469
-0.340693 -1.93593 -1.93593
-0.400933 -1.89873 -1.89873
-0.404919 -1.93654 -1.93654
-0.47378 -1.97557 -1.97557
-0.482874 -2.05283 -2.05283
-0.350945 -2.05144 -2.05144
-0.34411 -1.9741 -1.9741
-0.478328 -2.01403 -2.01403
-0.416867 -2.05199 -2.05199
-0.347527 -2.0126 -2.0126
-0.408903 -1.97469 -1.97469
-0.412886 -2.01318 -2.01318
-0.482874 -2.05283 -2.05283
-0.491954 -2.13141 -2.13141
-0.357783 -2.13012 -2.13012
-0.350945 -2.05144 -2.05144
-0.487416 -2.09195 -2.09195
-0.424826 -2.13062 -2.13062
-0.354364 -2.09061 -2.09061
-0.416867 -2.05199 -2.05199
-0.420848 -2.09114 -2.09114
-0.491954 -2.13141 -2.13141
-0.501023 -2.21131 -2.21131
-0.364623 -2.21011 -2.21011
-0.357783 -2.13012 -2.13012
-0.49649 -2.1712 -2.1712
-0.432781 -2.21057 -2.21057
-0.361203 -2.16995 -2.16995
-0.424826 -2.13062 -2.13062
-0.428804 -2.17043 -2.17043
-0.501023 -2.21131 -2.21131
-0.510079 -2.29253 -2.29253
-0.371467 -2.29142 -2.29142
-0.364623 -2.21011 -2.21011
-0.505552 -2.25176 -2.25176
-0.440731 -2.29184 -2.29184
-0.368045 -2.25061 -2.25061
-0.432781 -2.21057 -2.21057
-0.436756 -2.25104 -2.25104
-0.510079 -2.29253 -2.29253
-0.519123 -2.37505 -2.37505
-0.378314 -2.37404 -2.37404
-0.371467 -2.29142 -2.29142
-0.514602 -2.33363 -2.33363
-0.448677 -2.3744 -2.3744
-0.37489 -2.33257 -2.33257
-0.440731 -2.29184 -2.29184
-0.444704 -2.33296 -2.33296
-0.519123 -2.37505 -2.37505
-0.528156 -2.45886 -2.45886
-0.385166 -2.45795 -2.45795
-0.378314 -2.37404 -2.37404
-0.523641 -2.41679 -2.41679
-0.456619 -2.45826 -2.45826
-0.38174 -2.41583 -2.41583
-0.448677 -2.3744 -2.3744
-0.452648 -2.41617 -2.41617
-0.528156 -2.45886 -2.45886
-0.537178 -2.54396 -2.54396
-0.392022 -2.54314 -2.54314
-0.385166 -2.45795 -2.45795
-0.532669 -2.50125 -2.50125
-0.464558 -2.54341 -2.54341
-0.388593 -2.50038 -2.50038
-0.456619 -2.45826 -2.45826
-0.460589 -2.50068 -2.50068
-0.537178 -2.54396 -2.54396
-0.54619 -2.63033 -2.63033
-0.398882 -2.62961 -2.62961
-0.392022 -2.54314 -2.54314
-0.541685 -2.58698 -2.58698
-0.472494 -2.62983 -2.62983
-0.395451 -2.58621 -2.58621
-0.464558 -2.54341 -2.54341
-0.468526 -2.58646 -2.58646
-0.54619 -2.63033 -2.63033
-0.555191 -2.71797 -2.71797
-0.405748 -2.71734 -2.71734
-0.398882 -2.62961 -2.62961
-0.550692 -2.67399 -2.67399
-0.480427 -2.71752 -2.71752
-0.402315 -2.67332 -2.67332
-0.472494 -2.62983 -2.62983
-0.476461 -2.67352 -2.67352
-0.555191 -2.71797 -2.71797
-0.564182 -2.80687 -2.80687
-0.412619 -2.80634 -2.80634
-0.405748 -2.71734 -2.71734
-0.559688 -2.76226 -2.76226
-0.488358 -2.80647 -2.80647
-0.409183 -2.76169 -2.76169
-0.480427 -2.71752 -2.71752
-0.484393 -2.76184 -2.76184
-0.564182 -2.80687 -2.80687
-0.573163 -2.89701 -2.89701
-0.419496 -2.89658 -2.89658
-0.412619 -2.80634 -2.80634
-0.568674 -2.85178 -2.85178
-0.496287 -2.89667 -2.89667
-0.416057 -2.85131 -2.85131
-0.488358 -2.80647 -2.80647
-0.492323 -2.85141 -2.85141
-0.573163 -2.89701 -2.89701
-0.582135 -2.9884 -2.9884
-0.426379 -2.98807 -2.98807
-0.419496 -2.89658 -2.89658
-0.57765 -2.94255 -2.94255
-0.504214 -2.9881 -2.9881
-0.422936 -2.94217 -2.94217
-0.496287 -2.89667 -2.89667
-0.500251 -2.94223 -2.94223
-0.582135 -2.9884 -2.9884
-0.591098 -3.08101 -3.08101
-0.433268 -3.08078 -3.08078
-0.426379 -2.98807 -2.98807
-0.586618 -3.03455 -3.03455
-0.51214 -3.08077 -3.08077
-0.429822 -3.03427 -3.03427
-0.504214 -2.9881 -2.9881
-0.508178 -3.03428 -3.03428
-0.591098 -3.08101 -3.08101
-0.600052 -3.17485 -3.17485
-0.440163 -3.17472 -3.17472
-0.433268 -3.08078 -3.08078
-0.595576 -3.12778 -3.12778
-0.520065 -3.17466 -3.17466
-0.436715 -3.1276 -3.1276
-0.51214 -3.08077 -3.08077
-0.516103 -3.12756 -3.12756
-0.600052 -3.17485 -3.17485
-0.608998 -3.2699 -3.2699
-0.447065 -3.26987 -3.26987
-0.440163 -3.17472 -3.17472
-0.604526 -3.22223 -3.22223
-0.527989 -3.26976 -3.26976
-0.443613 -3.22215 -3.22215
-0.520065 -3.17466 -3.17466
-0.524027 -3.22206 -3.22206
-0.608998 -3.2699 -3.2699
-0.617935 -3.36616 -3.36616
-0.453975 -3.36623 -3.36623
-0.447065 -3.26987 -3.26987
-0.613467 -3.31788 -3.31788
-0.535912 -3.36607 -3.36607
-0.450519 -3.3179 -3.3179
-0.527989 -3.26976 -3.26976
-0.531951 -3.31776 -3.31776
-0.617935 -3.36616 -3.36616
-0.626864 -3.46361 -3.46361
-0.460891 -3.46378 -3.46378
-0.453975 -3.36623 -3.36623
-0.6224 -3.41473 -3.41473
-0.543835 -3.46357 -3.46357
-0.457432 -3.41486 -3.41486
-0.535912 -3.36607 -3.36607
-0.539874 -3.41467 -3.41467
-0.626864 -3.46361 -3.46361
-0.635785 -3.56224 -3.56224
-0.467816 -3.56252 -3.56252
-0.460891 -3.46378 -3.46378
-0.631325 -3.51278 -3.51278
-0.551757 -3.56225 -3.56225
-0.464353 -3.513 -3.513
-0.543835 -3.46357 -3.46357
-0.547796 -3.51276 -3.51276
-0.635785 -3.56224 -3.56224
-0.644698 -3.66206 -3.66206
-0.474747 -3.66243 -3.66243
-0.467816 -3.56252 -3.56252
-0.640242 -3.612 -3.612
-0.55968 -3.66212 -3.66212
-0.47128 -3.61233 -3.61233
-0.551757 -3.56225 -3.56225
-0.555719 -3.61204 -3.61204
-0.644698 -3.66206 -3.66206
-0.653604 -3.76303 -3.76303
-0.481687 -3.76351 -3.76351
-0.474747 -3.66243 -3.66243
-0.649152 -3.7124 -3.7124
-0.567603 -3.76315 -3.76315
-0.478216 -3.71282 -3.71282
-0.55968 -3.66212 -3.66212
-0.563641 -3.71249 -3.71249
-0.653604 -3.76303 -3.76303
-0.662502 -3.86517 -3.86517
-0.488635 -3.86575 -3.86575
-0.481687 -3.76351 -3.76351
-0.658054 -3.81396 -3.81396
-0.575526 -3.86534 -3.86534
-0.48516 -3.81449 -3.81449
-0.567603 -3.76315 -3.76315
-0.571564 -3.8141 -3.8141
-0.662502 -3.86517 -3.86517
-0.671394 -3.96846 -3.96846
-0.49559 -3.96914 -3.96914
-0.488635 -3.86575 -3.86575
-0.666949 -3.91667 -3.91667
-0.583449 -3.96868 -3.96868
-0.492111 -3.9173 -3.9173
-0.575526 -3.86534 -3.86534
-0.579487 -3.91687 -3.91687
-0.671394 -3.96846 -3.96846
-0.680278 -4.07289 -4.07289
-0.502555 -4.07367 -4.07367
-0.49559 -3.96914 -3.96914
-0.675836 -4.02053 -4.02053
-0.591373 -4.07316 -4.07316
-0.499071 -4.02126 -4.02126
-0.583449 -3.96868 -3.96868
-0.587411 -4.02078 -4.02078
-0.680278 -4.07289 -4.07289
-0.689155 -4.17845 -4.17845
-0.509527 -4.17933 -4.17933
-0.502555 -4.07367 -4.07367
-0.684717 -4.12553 -4.12553
-0.599298 -4.17877 -4.17877
-0.50604 -4.12636 -4.12636
-0.591373 -4.07316 -4.07316
-0.595336 -4.12582 -4.12582
-0.689155 -4.17845 -4.17845
-0.698026 -4.28513 -4.28513
-0.516508 -4.28612 -4.28612
-0.509527 -4.17933 -4.17933
-0.693591 -4.23165 -4.23165
-0.607224 -4.28551 -4.28551
-0.513017 -4.23259 -4.23259
-0.599298 -4.17877 -4.17877
-0.603261 -4.232 -4.232
-0.698026 -4.28513 -4.28513
-0.706889 -4.39293 -4.39293
-0.523498 -4.39402 -4.39402
-0.516508 -4.28612 -4.28612
-0.702458 -4.33889 -4.33889
-0.615151 -4.39336 -4.39336
-0.520002 -4.33993 -4.33993
-0.607224 -4.28551 -4.28551
-0.611188 -4.33929 -4.33929
-0.706889 -4.39293 -4.39293
-0.715747 -4.50183 -4.50183
-0.530497 -4.50302 -4.50302
-0.523498 -4.39402 -4.39402
-0.711319 -4.44724 -4.44724
-0.623079 -4.50231 -4.50231
-0.526997 -4.44838 -4.44838
-0.615151 -4.39336 -4.39336
-0.619115 -4.44769 -4.44769
-0.715747 -4.50183 -4.50183
-0.724598 -4.61182 -4.61182
-0.537505 -4.61312 -4.61312