<?xml version="1.0"?>
<VTKFile type="UnstructuredGrid">
  <UnstructuredGrid>
  <Piece NumberOfPoints="3200"  NumberOfCells="1560">
    <Points>
      <DataArray type="Float64" NumberOfComponents="3" format="ascii">
0 0 0.1
10 0 0.1
10 10 0.1
-1.44573e-08 10 0.1
4.56699 4.75 0.1
5.43301 5.25 0.1
-6.14514e-10 5 0.1
5.21651 5.125 0.1
5.55801 5.03349 0.1
5.64952 5.375 0.1
5.30801 5.46651 0.1
1 0 0.1
2 0 0.1
3 0 0.1
4 0 0.1
5 0 0.1
6 0 0.1
7 0 0.1
8 0 0.1
9 0 0.1
0.5 0 0.1
1.5 0 0.1
2.5 0 0.1
3.5 0 0.1
4.5 0 0.1
5.5 0 0.1
6.5 0 0.1
7.5 0 0.1
8.5 0 0.1
9.5 0 0.1
10 1 0.1
10 2 0.1
10 3 0.1
10 4 0.1
10 5 0.1
10 6 0.1
10 7 0.1
10 8 0.1
10 9 0.1
10 0.5 0.1
10 1.5 0.1
10 2.5 0.1
10 3.5 0.1
10 4.5 0.1
10 5.5 0.1
10 6.5 0.1
10 7.5 0.1
10 8.5 0.1
10 9.5 0.1
9 10 0.1
8 10 0.1
7 10 0.1
6 10 0.1
5 10 0.1
4 10 0.1
3 10 0.1
2 10 0.1
1 10 0.1
9.5 10 0.1
8.5 10 0.1
7.5 10 0.1
6.5 10 0.1
5.5 10 0.1
4.5 10 0.1
3.5 10 0.1
2.5 10 0.1
1.5 10 0.1
0.5 10 0.1
-1.16021e-08 9 0.1
-9.02754e-09 8 0.1
-6.33708e-09 7 0.1
-3.33649e-09 6 0.1
-1.29961e-08 9.5 0.1
-1.03001e-08 8.5 0.1
-7.71783e-09 7.5 0.1
-4.84214e-09 6.5 0.1
-1.87982e-09 5.5 0.1
9.29766e-10 4 0.1
1.14822e-09 3 0.1
6.77888e-10 2 0.1
1.89354e-10 1 0.1
3.33752e-10 4.5 0.1
1.16836e-09 3.5 0.1
9.53771e-10 2.5 0.1
4.12199e-10 1.5 0.1
5.30842e-11 0.5 0.1
4.61029 4.775 0.1
4.65359 4.8 0.1
4.69689 4.825 0.1
4.74019 4.85 0.1
4.78349 4.875 0.1
4.82679 4.9 0.1
4.8701 4.925 0.1
4.9134 4.95 0.1
4.9567 4.975 0.1
5 5 0.1
5.0433 5.025 0.1
5.0866 5.05 0.1
5.1299 5.075 0.1
5.1732 5.1 0.1
4.58864 4.7625 0.1
4.63194 4.7875 0.1
4.67524 4.8125 0.1
4.71854 4.8375 0.1
4.76184 4.8625 0.1
4.80514 4.8875 0.1
4.84845 4.9125 0.1
4.89175 4.9375 0.1
4.93505 4.9625 0.1
4.97835 4.9875 0.1
5.02165 5.0125 0.1
5.06495 5.0375 0.1
5.10825 5.0625 0.1
5.15155 5.0875 0.1
5.19486 5.1125 0.1
5.25981 5.15 0.1
5.30311 5.175 0.1
5.34641 5.2 0.1
5.38971 5.225 0.1
5.23816 5.1375 0.1
5.28146 5.1625 0.1
5.32476 5.1875 0.1
5.36806 5.2125 0.1
5.41136 5.2375 0.1
5.24505 5.08516 0.1
5.28082 5.05166 0.1
5.32244 5.02578 0.1
5.36831 5.00852 0.1
5.41666 5.00054 0.1
5.46564 5.00214 0.1
5.51337 5.01327 0.1
5.2298 5.10438 0.1
5.26211 5.06753 0.1
5.301 5.0377 0.1
5.34495 5.01602 0.1
5.39229 5.00334 0.1
5.44119 5.00013 0.1
5.48978 5.00653 0.1
5.53619 5.02228 0.1
5.59785 5.06204 0.1
5.63135 5.09781 0.1
5.65723 5.13943 0.1
5.67449 5.1853 0.1
5.68248 5.23365 0.1
5.68087 5.28263 0.1
5.66974 5.33036 0.1
5.57863 5.04679 0.1
5.61548 5.0791 0.1
5.64531 5.11798 0.1
5.66699 5.16194 0.1
5.67967 5.20928 0.1
5.68288 5.25818 0.1
5.67648 5.30677 0.1
5.66073 5.35318 0.1
5.62097 5.41484 0.1
5.5852 5.44834 0.1
5.54358 5.47422 0.1
5.49772 5.49148 0.1
5.44936 5.49946 0.1
5.40038 5.49786 0.1
5.35265 5.48673 0.1
5.63622 5.39562 0.1
5.60391 5.43247 0.1
5.56503 5.4623 0.1
5.52108 5.48398 0.1
5.47374 5.49666 0.1
5.42483 5.49987 0.1
5.37624 5.49347 0.1
5.32984 5.47772 0.1
5.26818 5.43796 0.1
5.23467 5.40219 0.1
5.20879 5.36057 0.1
5.19153 5.31471 0.1
5.18355 5.26635 0.1
5.18515 5.21737 0.1
5.19628 5.16964 0.1
5.28739 5.45321 0.1
5.25055 5.4209 0.1
5.22071 5.38202 0.1
5.19904 5.33806 0.1
5.18635 5.29072 0.1
5.18315 5.24182 0.1
5.18954 5.19323 0.1
5.2053 5.14682 0.1
5.34641 5.2 0.1
5.38971 5.225 0.1
5.25981 5.15 0.1
5.30311 5.175 0.1
5.0866 5.05 0.1
5.1299 5.075 0.1
5.1732 5.1 0.1
4.9567 4.975 0.1
5 5 0.1
5.0433 5.025 0.1
4.82679 4.9 0.1
4.8701 4.925 0.1
4.9134 4.95 0.1
4.69689 4.825 0.1
4.74019 4.85 0.1
4.78349 4.875 0.1
4.61029 4.775 0.1
4.65359 4.8 0.1
5.21651 5.125 0.1
4.76184 4.8625 0.1
4.63194 4.7875 0.1
5.10825 5.0625 0.1
5.28146 5.1625 0.1
5.15155 5.0875 0.1
4.58864 4.7625 0.1
4.97835 4.9875 0.1
5.02165 5.0125 0.1
5.32476 5.1875 0.1
4.89175 4.9375 0.1
4.84845 4.9125 0.1
4.71854 4.8375 0.1
4.67524 4.8125 0.1
5.41136 5.2375 0.1
4.80514 4.8875 0.1
5.36806 5.2125 0.1
5.06495 5.0375 0.1
5.19486 5.1125 0.1
5.23816 5.1375 0.1
4.93505 4.9625 0.1
5.53052 3.11451 0.1
3.65335 6.40498 0.1
4.33917 5.68004 0.1
5.26951 4.0832 0.1
7.44828 3.99683 0.1
5.35537 7.62184 0.1
7.55643 6.73494 0.1
4.75699 5.3442 0.1
5.20163 4.6048 0.1
5.78254 4.46431 0.1
4.93101 5.95055 0.1
3.75079 3.14531 0.1
2.80115 4.90889 0.1
5.58666 6.18061 0.1
6.23695 5.82609 0.1
6.46653 5.05676 0.1
4.82361 4.3822 0.1
4.35882 5.14785 0.1
3.94535 4.08445 0.1
5.18541 4.85183 0.1
4.96439 5.23466 0.1
6.10357 5.40635 0.1
6.02856 5.02147 0.1
5.76524 5.8603 0.1
4.67545 3.53638 0.1
5.45026 4.72311 0.1
5.75805 4.79271 0.1
4.96231 5.52431 0.1
5.19848 5.76762 0.1
3.95591 4.6852 0.1
3.63902 5.38943 0.1
4.93564 4.66148 0.1
4.67465 5.11352 0.1
6.42643 6.94736 0.1
4.7349 4.60916 0.1
4.38523 4.35317 0.1
5.83878 5.53136 0.1
5.50451 5.73064 0.1
4.60791 2.3908 0.1
4.52897 4.96584 0.1
7.22582 1.93297 0.1
1.89286 3.22933 0.1
3.55128 8.22557 0.1
4.53945 6.94116 0.1
7.83213 5.36946 0.1
5.02102 4.81302 0.1
1.79233 6.36323 0.1
4.84857 5.1117 0.1
6.44913 3.63044 0.1
3.07383 1.73736 0.1
5.86962 5.3518 0.1
5.67444 5.64522 0.1
5.35985 5.3521 0.1
5.48485 5.13559 0.1
5.55096 5.27653 0.1
2.95991 3.86354 0.1
5.4789 5.37174 0.1
5.84608 5.1818 0.1
5.61095 1.92278 0.1
6.641 8.58378 0.1
5.45039 4.34505 0.1
4.23164 4.82276 0.1
5.78292 5.02885 0.1
4.6797 5.7102 0.1
5.07717 6.57299 0.1
4.5073 6.11452 0.1
5.19911 5.57805 0.1
5.34131 5.63413 0.1
5.66704 3.99756 0.1
5.66939 4.92014 0.1
1.82246 8.18524 0.1
6.37367 4.59946 0.1
5.05723 5.39144 0.1
5.52088 4.86482 0.1
5.36761 4.85384 0.1
8.34263 8.30442 0.1
4.53585 4.5477 0.1
7.05296 5.71058 0.1
2.74177 5.92604 0.1
4.82819 4.74728 0.1
6.02622 6.17586 0.1
5.0919 5.17481 0.1
5.19734 4.99218 0.1
2.72156 7.01689 0.1
4.6948 4.97862 0.1
5.73078 6.86529 0.1
4.60904 3.99283 0.1
5.28237 5.27921 0.1
5.38299 5.10493 0.1
8.4946 2.90038 0.1
3.99585 5.06825 0.1
5.5713 5.18108 0.1
1.44973 4.42576 0.1
5.02596 4.45996 0.1
5.07636 4.91228 0.1
5.25388 6.08583 0.1
4.96221 5.10999 0.1
6.59419 6.34787 0.1
1.59298 1.72435 0.1
7.05633 4.64715 0.1
2.872 2.93186 0.1
3.373 4.38805 0.1
4.54692 5.28977 0.1
6.35719 2.7617 0.1
4.72619 4.72889 0.1
4.89732 4.82237 0.1
8.72367 4.38016 0.1
4.63018 4.89803 0.1
4.79483 4.9999 0.1
3.69726 7.23407 0.1
6.56038 5.55497 0.1
4.63712 4.67853 0.1
7.22549 3.05881 0.1
4.53599 4.84429 0.1
5.07085 5.27878 0.1
5.27743 4.92135 0.1
5.49536 5.62765 0.1
5.16892 3.53173 0.1
4.77739 8.80665 0.1
5.74239 5.47013 0.1
8.74262 6.28106 0.1
4.93369 4.07612 0.1
4.39433 4.66792 0.1
4.1433 5.42254 0.1
3.85812 5.8449 0.1
4.45198 7.84127 0.1
8.50104 1.40638 0.1
5.41025 5.4166 0.1
5.55698 5.36313 0.1
4.90343 3.00419 0.1
4.25732 1.23365 0.1
3.55624 4.91736 0.1
5.17349 5.49162 0.1
3.67634 2.22762 0.1
5.27977 4.73354 0.1
6.15197 4.16065 0.1
4.90271 5.37776 0.1
7.25502 7.71907 0.1
6.68826 4.04344 0.1
5.50218 5.21856 0.1
4.22354 3.7536 0.1
4.59493 4.32425 0.1
5.28456 5.57751 0.1
5.01475 5.70958 0.1
2.01326 5.35946 0.1
5.58117 4.92254 0.1
5.44401 4.89803 0.1
5.1249 4.74403 0.1
5.68735 5.01165 0.1
4.82851 5.24229 0.1
4.18469 6.63982 0.1
6.17643 7.69161 0.1
5.53331 8.60614 0.1
4.32582 3.0761 0.1
5.42152 5.32496 0.1
5.35712 4.59163 0.1
4.97505 4.89285 0.1
4.83525 5.51856 0.1
5.78648 5.26334 0.1
5.28793 5.35382 0.1
5.45038 5.07244 0.1
5.27101 4.41346 0.1
4.89473 5.03196 0.1
4.8616 4.50671 0.1
5.37342 2.44413 0.1
4.61829 5.51669 0.1
2.17341 4.19098 0.1
5.99252 3.483 0.1
5.61068 5.2387 0.1
5.55539 5.11465 0.1
4.52799 4.63652 0.1
3.57566 3.8009 0.1
5.59529 4.57355 0.1
4.14907 4.52554 0.1
5.76152 5.12603 0.1
5.35787 5.95078 0.1
5.62823 4.71394 0.1
4.37351 4.87389 0.1
4.83733 6.33384 0.1
5.48777 5.29171 0.1
5.25564 5.22712 0.1
5.32451 5.10783 0.1
6.01806 5.74061 0.1
5.36082 5.27647 0.1
5.43621 5.16548 0.1
4.90752 1.58777 0.1
4.49193 5.12359 0.1
0.82767 5.53486 0.1
5.42153 5.59132 0.1
5.55159 5.5733 0.1
3.23634 5.92192 0.1
5.74517 5.39429 0.1
5.66501 5.50212 0.1
6.59801 0.913001 0.1
2.68044 8.94104 0.1
8.44399 7.25692 0.1
5.03859 7.21679 0.1
5.42907 3.75367 0.1
4.2279 5.00286 0.1
1.11031 7.25469 0.1
6.06487 4.73611 0.1
5.10941 4.20366 0.1
4.35854 5.49415 0.1
6.03247 5.25157 0.1
5.12564 4.98199 0.1
6.65767 5.9118 0.1
5.62347 5.97065 0.1
6.85658 5.20621 0.1
5.04722 5.11782 0.1
4.43464 4.7704 0.1
7.78368 4.70184 0.1
5.34419 5.4118 0.1
5.60705 5.3149 0.1
5.32891 6.47119 0.1
5.12104 5.37315 0.1
5.05361 4.58301 0.1
2.97233 6.39635 0.1
2.71035 7.95005 0.1
5.81717 6.52684 0.1
5.46975 5.43651 0.1
8.78312 5.33011 0.1
4.32157 4.05526 0.1
4.69605 5.24756 0.1
4.17351 6.00186 0.1
4.6223 4.45371 0.1
7.72476 6.042 0.1
5.53725 5.4163 0.1
4.88264 5.65577 0.1
3.91285 4.3892 0.1
4.74646 4.15153 0.1
0.867295 3.63063 0.1
0.876296 2.58244 0.1
6.26729 6.55005 0.1
3.04782 5.22832 0.1
7.58919 9.0641 0.1
5.50298 4.94918 0.1
5.38565 4.94212 0.1
5.51528 5.06515 0.1
3.32151 3.23963 0.1
5.2517 5.50307 0.1
5.67599 0.763895 0.1
2.1005 2.27986 0.1
4.82262 4.63594 0.1
4.7942 4.80646 0.1
5.90402 4.89733 0.1
2.24654 0.866159 0.1
5.61335 4.99781 0.1
4.73054 4.91734 0.1
8.40981 3.6838 0.1
4.78928 3.82646 0.1
5.17547 5.41223 0.1
5.6963 5.08581 0.1
4.59558 5.02892 0.1
5.12375 5.23988 0.1
5.26961 4.98723 0.1
4.95329 4.74828 0.1
5.12675 3.85332 0.1
5.10317 4.8325 0.1
4.14885 4.26702 0.1
5.13576 5.30746 0.1
5.32632 4.96576 0.1
5.36229 5.54875 0.1
5.74098 5.19951 0.1
4.90312 5.17673 0.1
5.1701 4.92513 0.1
5.67802 5.42627 0.1
5.72892 5.32179 0.1
4.65084 4.56381 0.1
3.96153 9.0192 0.1
5.02021 5.18474 0.1
4.75864 5.08541 0.1
3.33003 6.78521 0.1
7.56676 1.10781 0.1
4.70122 5.92628 0.1
5.48188 5.54829 0.1
1.06564 8.93436 0.1
5.58938 5.5081 0.1
1.91934 7.15884 0.1
5.28024 4.83613 0.1
5.09237 5.54179 0.1
9.17376 3.55867 0.1
5.24668 5.31948 0.1
5.40002 5.05389 0.1
4.66101 4.73714 0.1
4.99762 5.3242 0.1
6.87326 6.78072 0.1
6.65993 4.78655 0.1
6.17677 5.61412 0.1
6.99322 3.69223 0.1
4.50999 6.469 0.1
5.82666 6.03117 0.1
7.13528 6.16715 0.1
4.60287 4.83786 0.1
3.69561 0.740763 0.1
5.65888 4.25529 0.1
5.10472 5.97872 0.1
6.33097 6.12444 0.1
2.45181 3.36313 0.1
5.01834 6.13389 0.1
3.44681 2.76606 0.1
3.99542 2.78353 0.1
2.4265 6.43444 0.1
4.91955 4.89038 0.1
5.00598 4.9391 0.1
6.25179 4.93077 0.1
3.9159 3.76996 0.1
4.07343 3.41875 0.1
5.62241 5.17872 0.1
4.37394 4.51624 0.1
4.86484 4.98514 0.1
[...]
    <PointData>
      <DataArray type="Float64" NumberOfComponents="2" Name="Displacement" format="ascii">
0 0
-3.09474e-07 0
-3.16352e-07 9.43212e-07
-1.44573e-08 9.4103e-07
-1.22677e-07 4.51516e-07
-1.97608e-07 4.98891e-07
-6.14514e-10 4.70557e-07
-1.79988e-07 4.16941e-07
-1.80905e-07 4.65332e-07
-1.90846e-07 5.1063e-07
-1.73772e-07 5.54217e-07
-3.15914e-08 0
-6.31902e-08 0
-9.46092e-08 0
-1.25473e-07 0
-1.55606e-07 0
-1.85413e-07 0
-2.15555e-07 0
-2.46353e-07 0
-2.77721e-07 0
-1.57943e-08 0
-4.73923e-08 0
-7.89393e-08 0
-1.10136e-07 0
-1.40623e-07 0
-1.705e-07 0
-2.00405e-07 0
-2.30874e-07 0
-2.61979e-07 0
-2.93557e-07 0
-3.09814e-07 9.57109e-08
-3.10938e-07 1.91511e-07
-3.13019e-07 2.87242e-07
-3.15891e-07 3.82378e-07
-3.18691e-07 4.76464e-07
-3.20307e-07 5.69681e-07
-3.20414e-07 6.62709e-07
-3.19464e-07 7.55976e-07
-3.17985e-07 8.49504e-07
-3.09556e-07 4.78472e-08
-3.10267e-07 1.43602e-07
-3.11862e-07 2.39408e-07
-3.14404e-07 3.3491e-07
-3.17373e-07 4.29553e-07
-3.19685e-07 5.23135e-07
-3.20527e-07 6.16182e-07
-3.20033e-07 7.09313e-07
-3.18766e-07 8.02717e-07
-3.17168e-07 8.96341e-07
-2.8506e-07 9.44805e-07
-2.53644e-07 9.46649e-07
-2.2254e-07 9.4909e-07
-1.92424e-07 9.51801e-07
-1.63603e-07 9.53581e-07
-1.35381e-07 9.53259e-07
-1.06552e-07 9.50879e-07
-7.65939e-08 9.47501e-07
-4.57105e-08 9.44076e-07
-3.00723e-07 9.4401e-07
-2.69353e-07 9.45668e-07
-2.3802e-07 9.47806e-07
-2.07332e-07 9.50482e-07
-1.77886e-07 9.52889e-07
-1.495e-07 9.53699e-07
-1.21092e-07 9.52264e-07
-9.1699e-08 9.49254e-07
-6.12358e-08 9.45759e-07
-3.00937e-08 9.42518e-07
-1.16021e-08 8.4728e-07
-9.02754e-09 7.53225e-07
-6.33708e-09 6.5876e-07
-3.33649e-09 5.64379e-07
-1.29961e-08 8.94165e-07
-1.03001e-08 8.00307e-07
-7.71783e-09 7.06021e-07
-4.84214e-09 6.11528e-07
-1.87982e-09 5.17392e-07
9.29766e-10 3.77195e-07
1.14822e-09 2.83606e-07
6.77888e-10 1.89454e-07
1.89354e-10 9.48268e-08
3.33752e-10 4.2386e-07
1.16836e-09 3.30456e-07
9.53771e-10 2.36595e-07
4.12199e-10 1.42178e-07
5.30842e-11 4.74248e-08
-1.22188e-07 4.20327e-07
-1.26328e-07 4.08541e-07
-1.30521e-07 4.01342e-07
-1.34642e-07 3.96543e-07
-1.38761e-07 3.93404e-07
-1.4288e-07 3.91572e-07
-1.47e-07 3.9083e-07
-1.51121e-07 3.91044e-07
-1.55242e-07 3.92143e-07
-1.59364e-07 3.94082e-07
-1.63486e-07 3.96852e-07
-1.67611e-07 4.00462e-07
-1.71736e-07 4.04955e-07
-1.75861e-07 4.10406e-07
-1.19988e-07 4.30743e-07
-1.24159e-07 4.13731e-07
-1.28423e-07 4.04577e-07
-1.32563e-07 3.98701e-07
-1.36691e-07 3.94794e-07
-1.40817e-07 3.92345e-07
-1.44938e-07 3.91075e-07
-1.49058e-07 3.90823e-07
-1.53181e-07 3.91487e-07
-1.57302e-07 3.93009e-07
-1.61426e-07 3.95364e-07
-1.65549e-07 3.9855e-07
-1.69674e-07 4.02595e-07
-1.738e-07 4.07555e-07
-1.77926e-07 4.13528e-07
-1.84106e-07 4.24776e-07
-1.88238e-07 4.34245e-07
-1.92336e-07 4.46125e-07
-1.96707e-07 4.62538e-07
-1.82053e-07 4.20676e-07
-1.86177e-07 4.29274e-07
-1.90318e-07 4.39842e-07
-1.94507e-07 4.53507e-07
-1.97973e-07 4.74767e-07
-1.74102e-07 4.21439e-07
-1.70434e-07 4.26741e-07
-1.68834e-07 4.32667e-07
-1.69044e-07 4.39037e-07
-1.70727e-07 4.45655e-07
-1.73526e-07 4.52337e-07
-1.77047e-07 4.58932e-07
-1.76762e-07 4.19083e-07
-1.71994e-07 4.24002e-07
-1.69391e-07 4.2964e-07
-1.68731e-07 4.35812e-07
-1.69724e-07 4.42326e-07
-1.72013e-07 4.48998e-07
-1.75222e-07 4.55654e-07
-1.78958e-07 4.62163e-07
-1.84726e-07 4.71478e-07
-1.88175e-07 4.7736e-07
-1.90972e-07 4.83016e-07
-1.92907e-07 4.88514e-07
-1.93854e-07 4.93943e-07
-1.93776e-07 4.99388e-07
-1.92733e-07 5.04934e-07
-1.82843e-07 4.68438e-07
-1.86517e-07 4.74451e-07
-1.89671e-07 4.80214e-07
-1.92058e-07 4.8578e-07
-1.93507e-07 4.91231e-07
-1.93946e-07 4.96656e-07
-1.93371e-07 5.02147e-07
-1.91883e-07 5.07763e-07
-1.88324e-07 5.16491e-07
-1.85408e-07 5.22483e-07
-1.8238e-07 5.28528e-07
-1.79504e-07 5.34497e-07
-1.7704e-07 5.40232e-07
-1.75188e-07 5.45552e-07
-1.74082e-07 5.50269e-07
-1.89651e-07 5.13542e-07
-1.86899e-07 5.19475e-07
-1.83891e-07 5.25504e-07
-1.80905e-07 5.31529e-07
-1.7821e-07 5.37405e-07
-1.76027e-07 5.42956e-07
-1.74536e-07 5.47994e-07
-1.73827e-07 5.52345e-07
-1.74218e-07 5.57267e-07
-1.75287e-07 5.59354e-07
-1.76764e-07 5.60498e-07
-1.7837e-07 5.60789e-07
-1.79794e-07 5.60398e-07
-1.80761e-07 5.59511e-07
-1.81064e-07 5.58331e-07
-1.73906e-07 5.55854e-07
-1.74689e-07 5.58431e-07
-1.75994e-07 5.60039e-07
-1.7757e-07 5.60744e-07
-1.79123e-07 5.60667e-07
-1.80349e-07 5.59998e-07
-1.81002e-07 5.58946e-07
-1.80947e-07 5.57677e-07
-1.93017e-07 5.4202e-07
-1.97587e-07 5.3036e-07
-1.84768e-07 5.53896e-07
-1.88881e-07 5.49145e-07
-1.68279e-07 5.5929e-07
-1.72403e-07 5.59528e-07
-1.76524e-07 5.58808e-07
-1.55911e-07 5.53407e-07
-1.60033e-07 5.56203e-07
-1.64157e-07 5.58167e-07
-1.43539e-07 5.39763e-07
-1.47666e-07 5.45244e-07
-1.51786e-07 5.49769e-07
-1.31221e-07 5.15784e-07
-1.35327e-07 5.25308e-07
-1.3942e-07 5.33191e-07
-1.22823e-07 4.87213e-07
-1.26973e-07 5.03895e-07
-1.80641e-07 5.57001e-07
-1.37359e-07 5.2942e-07
-1.24849e-07 4.96307e-07
-1.70342e-07 5.59523e-07
-1.86831e-07 5.51759e-07
-1.74464e-07 5.59295e-07
-1.22315e-07 4.74289e-07
-1.57971e-07 5.54908e-07
-1.62095e-07 5.57289e-07
-1.90969e-07 5.45934e-07
-1.49724e-07 5.47619e-07
-1.45601e-07 5.42629e-07
-1.33257e-07 5.20778e-07
-1.29101e-07 5.10185e-07
-1.99343e-07 5.20061e-07
-1.41475e-07 5.36618e-07
-1.95253e-07 5.36951e-07
-1.66218e-07 5.58836e-07
-1.78585e-07 5.58051e-07
-1.82713e-07 5.55633e-07
-1.53848e-07 5.51694e-07
-1.70182e-07 2.82403e-07
-1.244e-07 6.17524e-07
-1.49725e-07 5.59937e-07
-1.58848e-07 3.6009e-07
-2.34163e-07 3.77503e-07
-1.74017e-07 7.32967e-07
-2.4396e-07 6.39106e-07
-1.66574e-07 5.51744e-07
-1.5164e-07 3.92782e-07
-1.75462e-07 4.08596e-07
-1.64358e-07 5.94177e-07
-1.18456e-07 2.9453e-07
-8.7353e-08 4.66623e-07
-1.7948e-07 5.99686e-07
-2.03728e-07 5.53996e-07
-2.10078e-07 4.78328e-07
-1.49121e-07 3.79748e-07
-1.43249e-07 5.03689e-07
-1.22688e-07 3.85505e-07
-1.54249e-07 4.05268e-07
-1.72348e-07 5.58727e-07
-2.02191e-07 5.12074e-07
-1.96965e-07 4.73456e-07
-1.86532e-07 5.63581e-07
-1.47374e-07 3.20858e-07
-1.62282e-07 4.19418e-07
-1.802e-07 4.43988e-07
-1.69866e-07 5.69837e-07
-1.69553e-07 5.78173e-07
-1.18701e-07 4.47024e-07
-1.1813e-07 5.16345e-07
-1.44627e-07 3.86197e-07
-1.58789e-07 5.27499e-07
-2.07044e-07 6.63291e-07
-1.43633e-07 3.9411e-07
-1.37128e-07 4.04831e-07
-1.93401e-07 5.26183e-07
-1.77194e-07 5.59837e-07
-1.4458e-07 2.19462e-07
-1.43428e-07 4.92705e-07
-2.22729e-07 1.80309e-07
-5.82716e-08 3.05994e-07
-1.20746e-07 7.87272e-07
-1.51098e-07 6.73516e-07
-2.5218e-07 5.0915e-07
-1.47615e-07 3.9234e-07
-6.13895e-08 6.03489e-07
-1.64566e-07 5.46581e-07
-1.98427e-07 3.36858e-07
-9.69156e-08 1.63206e-07
-1.96708e-07 5.0665e-07
-1.84972e-07 5.42837e-07
-1.78343e-07 5.41245e-07
-1.85405e-07 4.74934e-07
-1.92711e-07 4.99205e-07
-9.12894e-08 3.66784e-07
-1.82727e-07 5.1987e-07
-1.95637e-07 4.89084e-07
-1.73667e-07 1.75988e-07
-2.13521e-07 8.17484e-07
-1.61571e-07 3.85132e-07
-1.25355e-07 4.61877e-07
-1.89765e-07 4.72061e-07
-1.61435e-07 5.73998e-07
-1.65813e-07 6.41484e-07
-1.53307e-07 6.02495e-07
-1.71064e-07 5.67706e-07
-1.72554e-07 5.6177e-07
-1.70855e-07 3.60754e-07
-1.80435e-07 4.56104e-07
-6.68193e-08 7.76611e-07
-2.01537e-07 4.32414e-07
-1.73709e-07 5.65613e-07
-1.69913e-07 4.40447e-07
-1.6132e-07 4.24616e-07
-2.67179e-07 7.86699e-07
-1.40766e-07 4.17304e-07
-2.29131e-07 5.41463e-07
-9.09707e-08 5.64624e-07
-1.39816e-07 3.89737e-07
-1.94632e-07 5.91309e-07
-1.75819e-07 5.60535e-07
-1.63344e-07 4.12099e-07
-9.37218e-08 6.6971e-07
-1.5138e-07 5.20647e-07
-1.84565e-07 6.61101e-07
-1.46051e-07 3.60936e-07
-1.82962e-07 5.5294e-07
-1.77546e-07 4.51139e-07
-2.64721e-07 2.74765e-07
-1.25238e-07 4.86047e-07
-1.91696e-07 4.86814e-07
-4.47381e-08 4.18893e-07
-1.49733e-07 3.7968e-07
-1.54072e-07 3.98043e-07
-1.70155e-07 5.99545e-07
-1.67961e-07 5.55223e-07
-2.13512e-07 6.04083e-07
-4.98164e-08 1.63119e-07
-2.25009e-07 4.39584e-07
-8.98751e-08 2.77189e-07
-1.03033e-07 4.17469e-07
-1.57195e-07 5.31805e-07
-1.95462e-07 2.54595e-07
-1.36282e-07 3.96632e-07
-1.43065e-07 3.89745e-07
-2.7682e-07 4.15982e-07
-1.42479e-07 5.02142e-07
-1.5522e-07 5.36796e-07
-1.25502e-07 6.95792e-07
-2.14606e-07 5.2657e-07
-1.38997e-07 4.11031e-07
-2.23731e-07 2.86561e-07
-1.33099e-07 4.74146e-07
-1.75821e-07 5.62657e-07
-1.60476e-07 4.19211e-07
-1.77463e-07 5.49986e-07
-1.59611e-07 3.16903e-07
-1.57351e-07 8.42961e-07
-1.91275e-07 5.20541e-07
-2.81331e-07 5.95463e-07
-1.52698e-07 3.59067e-07
-1.2837e-07 4.44293e-07
-1.39176e-07 5.27354e-07
-1.3078e-07 5.65363e-07
-1.47767e-07 7.54165e-07
-2.62556e-07 1.32931e-07
-1.77118e-07 5.36584e-07
-1.87908e-07 5.11772e-07
-1.53276e-07 2.73046e-07
-1.33503e-07 1.14093e-07
-1.09801e-07 4.6889e-07
-1.72422e-07 5.65653e-07
-1.16019e-07 2.07955e-07
-1.54763e-07 4.06558e-07
-1.88947e-07 3.85352e-07
-1.7076e-07 5.61669e-07
-2.33358e-07 7.337e-07
-2.08307e-07 3.78963e-07
-1.93756e-07 4.9088e-07
-1.33852e-07 3.48171e-07
-1.45474e-07 3.89704e-07
-1.7192e-07 5.62245e-07
-1.67792e-07 5.78975e-07
-6.47167e-08 5.08209e-07
-1.75856e-07 4.51943e-07
-1.66883e-07 4.3731e-07
-1.49586e-07 3.95575e-07
-1.85584e-07 4.68083e-07
-1.68201e-07 5.50793e-07
-1.4155e-07 6.4472e-07
-1.9905e-07 7.35439e-07
-1.79738e-07 8.23194e-07
-1.3678e-07 2.83508e-07
-1.81799e-07 5.23611e-07
-1.57067e-07 4.01128e-07
-1.49388e-07 3.92176e-07
-1.67601e-07 5.66371e-07
-1.95387e-07 4.97378e-07
-1.77839e-07 5.53055e-07
-1.77686e-07 4.59969e-07
-1.55347e-07 3.83527e-07
-1.60259e-07 5.48726e-07
-1.47313e-07 3.83221e-07
-1.66561e-07 2.22856e-07
-1.61142e-07 5.56592e-07
-6.68268e-08 3.97549e-07
-1.83045e-07 3.1858e-07
-1.93415e-07 4.94293e-07
-1.86722e-07 4.76915e-07
-1.36763e-07 4.30973e-07
-1.11357e-07 3.59501e-07
-1.67657e-07 4.12822e-07
-1.24788e-07 4.30257e-07
-1.92634e-07 4.82659e-07
-1.72583e-07 5.85813e-07
-1.71437e-07 4.29572e-07
-1.2983e-07 4.69306e-07
-1.60445e-07 6.22846e-07
-1.9044e-07 5.03733e-07
-1.84539e-07 5.55019e-07
-1.77142e-07 4.37832e-07
-1.96995e-07 5.46747e-07
-1.86089e-07 5.39478e-07
-1.85937e-07 4.72472e-07
-1.53053e-07 1.45739e-07
-1.49774e-07 5.09312e-07
-2.79308e-08 5.22586e-07
-1.74978e-07 5.51968e-07
-1.80575e-07 5.40288e-07
-1.08043e-07 5.66742e-07
-1.93096e-07 5.11745e-07
-1.87441e-07 5.26182e-07
-2.03343e-07 8.44188e-08
-9.4716e-08 8.50951e-07
-2.71571e-07 6.8769e-07
-1.64705e-07 6.97581e-07
-1.65155e-07 3.36217e-07
-1.31266e-07 4.8185e-07
-4.21325e-08 6.86103e-07
-1.92082e-07 4.43772e-07
-1.54445e-07 3.66425e-07
-1.50078e-07 5.42294e-07
-2.00303e-07 4.96634e-07
-1.60912e-07 4.03682e-07
-2.16802e-07 5.6119e-07
-1.80799e-07 5.78742e-07
-2.22365e-07 4.93178e-07
-1.7154e-07 5.58961e-07
-1.26158e-07 4.57124e-07
-2.4837e-07 4.45695e-07
-1.75604e-07 5.46839e-07
-1.91937e-07 5.03631e-07
-1.72317e-07 6.30304e-07
-1.75134e-07 5.64452e-07
-1.48184e-07 3.85422e-07
-1.00754e-07 6.11432e-07
-9.44964e-08 7.58063e-07
-1.87059e-07 6.28369e-07
-1.79459e-07 5.30437e-07
-2.81456e-07 5.05869e-07
-1.36733e-07 3.75682e-07
-1.63432e-07 5.40182e-07
-1.42978e-07 5.86295e-07
-1.45524e-07 3.98393e-07
-2.49677e-07 5.72915e-07
-1.84139e-07 5.20947e-07
-1.66627e-07 5.75416e-07
-1.19087e-07 4.1716e-07
-1.4926e-07 3.68787e-07
-2.59773e-08 3.43242e-07
-2.65633e-08 2.44324e-07
-2.02117e-07 6.25896e-07
-9.67742e-08 4.97818e-07
-2.42537e-07 8.5982e-07
-1.72665e-07 4.49373e-07
-1.65879e-07 4.35144e-07
-1.80863e-07 4.66637e-07
-1.04184e-07 3.05721e-07
-1.72595e-07 5.61099e-07
-1.75734e-07 7.01547e-08
-6.56167e-08 2.15686e-07
-1.43286e-07 3.88078e-07
-1.37484e-07 3.9226e-07
-1.89708e-07 4.59116e-07
-7.08806e-08 8.17094e-08
-1.81535e-07 4.63582e-07
-1.4557e-07 5.24337e-07
-2.64325e-07 3.49299e-07
-1.50365e-07 3.4315e-07
-1.74566e-07 5.63391e-07
-1.89481e-07 4.77274e-07
-1.5105e-07 5.09415e-07
-1.77887e-07 5.61612e-07
-1.64476e-07 4.21931e-07
-1.44333e-07 3.88598e-07
-1.57438e-07 3.42163e-07
-1.50928e-07 3.97679e-07
-1.28537e-07 4.02017e-07
-1.77198e-07 5.62732e-07
-1.64701e-07 4.28955e-07
-1.73576e-07 5.53708e-07
-1.94112e-07 4.90478e-07
-1.69036e-07 5.53326e-07
-1.57554e-07 4.06784e-07
-1.90147e-07 5.1646e-07
-1.94065e-07 5.03674e-07
-1.4451e-07 4.02907e-07
-1.33335e-07 8.6205e-07
-1.73221e-07 5.59455e-07
-1.60475e-07 5.35784e-07
-1.13651e-07 6.51175e-07
-2.3308e-07 1.03632e-07
-1.59848e-07 5.90557e-07
-1.77748e-07 5.4251e-07
-4.47436e-08 8.44366e-07
-1.83773e-07 5.30096e-07
-6.78169e-08 6.79782e-07
-1.57005e-07 4.13861e-07
-1.7093e-07 5.70148e-07
-2.88362e-07 3.38635e-07
-1.79354e-07 5.57026e-07
-1.73673e-07 4.49104e-07
-1.32444e-07 4.0636e-07
-1.73491e-07 5.62798e-07
-2.21889e-07 6.45081e-07
-2.13367e-07 4.52313e-07
-2.03183e-07 5.3282e-07
-2.17473e-07 3.46388e-07
-1.5159e-07 6.32454e-07
-1.87965e-07 5.79845e-07
-2.31289e-07 5.8522e-07
-1.3514e-07 4.88872e-07
-1.1622e-07 6.89857e-08
-1.69661e-07 3.84096e-07
-1.67274e-07 5.94556e-07
-2.05407e-07 5.83397e-07
-7.58653e-08 3.1886e-07
-1.65111e-07 6.06824e-07
-1.08695e-07 2.59758e-07
-1.26299e-07 2.58705e-07
-8.24447e-08 6.12486e-07
-1.46936e-07 3.90815e-07
-1.53775e-07 3.94078e-07
-2.0213e-07 4.65303e-07
-1.23126e-07 3.54006e-07
-1.28997e-07 3.18049e-07
-1.92096e-07 4.87259e-07
-1.3328e-07 4.24958e-07
-1.55014e-07 5.45028e-07
-1.62086e-07 5.5327e-07
-1.73144e-07 5.66509e-07
-1.81046e-07 2.77979e-07
-1.6953e-07 4.13888e-07
-1.87922e-07 5.49519e-07
-1.82798e-07 4.45513e-07
-1.77504e-07 5.59777e-07
-2.37605e-07 4.75414e-07
-1.36246e-07 5.03969e-07
-1.40315e-07 4.89514e-07
-1.1158e-07 3.94482e-07
-2.06066e-07 4.93117e-07
-1.87478e-07 4.15088e-07
-9.87648e-08 2.26711e-07
-1.73363e-07 5.73e-07
-1.73958e-07 6.5673e-07
-1.87578e-07 5.09931e-07
-2.86843e-07 8.51331e-07
-1.85649e-07 7.10555e-07
-1.64488e-07 7.83752e-07
-1.35848e-07 1.77333e-07
-1.37245e-07 6.77013e-07
-1.90406e-07 4.84118e-07
-1.84025e-07 3.56925e-07
-2.37491e-07 2.40781e-07
-1.81485e-07 5.57631e-07
-1.72948e-07 4.40805e-07
-1.98048e-07 8.73721e-07
-2.81336e-07 2.00438e-07
-1.55423e-07 5.78559e-07
-1.1048e-07 4.38323e-07
-8.81553e-08 4.11603e-07
-1.89569e-07 4.8159e-07
-1.63337e-07 3.70736e-07
-1.92837e-07 4.86911e-07
-3.57949e-08 6.07382e-07
-1.64069e-07 4.28538e-07
-1.63533e-07 5.84278e-07
-1.47157e-07 3.91033e-07
-1.41648e-07 3.84509e-07
-1.47178e-07 3.83163e-07
-1.40884e-07 3.90769e-07
-1.39249e-07 5.53303e-07
-1.51334e-07 3.72456e-07
-1.9341e-07 4.92838e-07
-1.75413e-07 4.26538e-07
-1.53114e-07 7.17735e-07
-2.96178e-07 7.25249e-07
-1.79588e-07 5.27987e-07
-1.48982e-07 5.33942e-07
-1.34269e-07 3.9604e-07
-1.58021e-07 3.97638e-07
-1.74476e-07 8.8452e-07
-1.52749e-07 3.01113e-07
-1.97686e-07 5.16528e-07
-1.65016e-07 5.43404e-07
-1.22663e-07 4.65905e-07
-1.1677e-07 4.67721e-07
-1.66311e-07 5.56674e-07
-1.75359e-07 5.53431e-07
-2.49488e-07 6.98717e-07
-2.61374e-08 8.27967e-08
-1.80921e-07 4.64208e-07
-1.80719e-07 5.47024e-07
-1.40344e-07 5.16081e-07
-1.9681e-07 5.68864e-07
-1.82833e-07 5.57e-07
-1.8983e-07 5.43461e-07
-1.57927e-07 5.26702e-07
-1.66346e-07 4.07534e-07
-1.98495e-07 1.89084e-07
-2.06291e-07 2.95162e-07
-1.74036e-07 5.59792e-07
-1.48993e-07 5.2343e-07
-1.50872e-07 3.84892e-07
-1.08509e-07 7.16997e-07
-2.62089e-07 6.13909e-07
-2.65515e-07 5.47819e-07
-1.3224e-07 4.20867e-07
-1.74296e-07 4.4242e-07
-3.78636e-08 7.6406e-07
-8.26451e-08 5.12231e-07
-1.86433e-07 6.02097e-07
-2.35661e-07 7.93265e-07
-1.76585e-07 6.90755e-07
-1.28919e-07 4.70368e-07
-4.98279e-08 3.58074e-07
-1.93359e-07 4.98985e-07
-1.36679e-07 5.04805e-07
-1.94367e-07 4.77445e-07
-1.87038e-07 5.16289e-07
-1.77024e-07 5.37707e-07
-7.18825e-08 5.5605e-07
-1.58246e-07 6.46835e-07
-1.71778e-07 5.65768e-07
-1.74177e-07 5.61345e-07
-1.62172e-07 5.46624e-07
-1.41315e-07 7.9972e-07
-1.70776e-07 5.69579e-07
-1.94678e-07 5.14601e-07
-1.75469e-07 5.43679e-07
-1.89828e-07 5.09873e-07
-1.53712e-07 8.59076e-08
-1.58971e-07 4.16596e-07
-2.97496e-07 6.39726e-07
-1.85653e-07 5.2488e-07
-1.52447e-07 4.0241e-07
-1.67045e-07 3.11347e-07
-1.46807e-07 3.8894e-07
-1.67904e-07 6.20404e-07
-1.67632e-07 5.8461e-07
-2.40884e-07 3.24497e-07
-1.29543e-07 6.49891e-07
-1.7362e-07 5.61826e-07
-1.75182e-07 5.93127e-07
-1.33329e-07 5.97661e-07
-1.70917e-07 5.57565e-07
-1.39381e-07 7.1613e-07
-1.85663e-07 4.59393e-07
-7.01001e-08 8.5069e-07
-1.60374e-07 4.14276e-07
-1.75662e-07 5.61367e-07
-6.8628e-08 4.57034e-07
-1.57291e-07 3.73165e-07
-1.78849e-07 3.85181e-07
-1.56606e-07 5.61408e-07
-2.13844e-07 2.41071e-07
-2.08898e-07 5.16916e-07
-1.8128e-07 2.28982e-07
-1.60888e-07 2.91613e-07
-1.6276e-07 2.59295e-07
-2.13033e-07 7.09809e-07
-7.464e-08 1.60265e-07
-1.2168e-07 5.82161e-07
-1.45989e-07 3.90671e-07
-1.80898e-07 5.47749e-07
-1.29552e-07 4.45662e-07
-1.88429e-07 5.31283e-07
-2.82767e-07 8.05525e-08
-1.67623e-07 4.19181e-07
-1.78681e-07 5.60384e-07
-1.83e-07 4.33211e-07
-1.60199e-07 5.43104e-07
-2.6526e-07 4.71952e-07
-1.50298e-07 3.94257e-07
-1.4298e-07 6.14645e-07
-1.97431e-07 5.31013e-07
-2.04506e-08 4.11752e-07
-1.40262e-07 3.9139e-07
-2.41971e-07 1.67882e-07
-1.28843e-07 5.31992e-07
-2.20931e-07 8.6712e-07
-1.69364e-07 5.75075e-07
-1.84536e-07 5.14695e-07
-1.36062e-07 4.30893e-07
-1.72972e-07 5.56447e-07
-1.77246e-07 4.59863e-07
-1.64828e-07 5.50685e-07
-1.73737e-07 3.30789e-07
-1.15017e-07 1.39589e-07
-1.41658e-07 3.88742e-07
-1.94484e-07 4.96908e-07
-1.92645e-07 2.96563e-07
-1.69698e-07 4.44158e-07
-1.25426e-07 4.45388e-07
-2.0958e-07 5.40449e-07
-1.42545e-07 3.44856e-07
-1.62027e-07 4.25607e-07
-1.65976e-07 5.83816e-07
-1.90192e-07 5.42793e-07
-1.87001e-07 4.60093e-07
-1.54246e-07 3.91797e-07
-1.85297e-07 7.64695e-07
-1.80965e-07 5.28497e-07
-1.43826e-07 3.90601e-07
-1.76564e-07 5.7476e-07
-1.83635e-07 5.56298e-07
-1.77391e-07 4.27866e-07
-1.60756e-07 6.04004e-07
-1.93409e-07 4.97357e-07
-1.39946e-07 3.99344e-07
-1.48069e-07 5.06912e-07
-1.50448e-07 5.40225e-07
-1.7696e-07 5.3964e-07
-1.90815e-07 5.04804e-07
-1.31274e-07 4.012e-07
-1.35841e-07 4.78348e-07
-1.55117e-07 5.28599e-07
-1.65412e-07 5.58269e-07
-1.94678e-07 4.96409e-07
-1.45168e-07 2.93898e-07
-1.99478e-07 4.00417e-07
-1.96159e-07 3.67602e-07
-1.50232e-07 9.0182e-07
-2.52022e-07 3.94264e-07
-1.7752e-07 4.58097e-07
-2.22972e-07 3.98583e-07
-2.95325e-07 4.64231e-07
-2.12668e-08 1.61229e-07
-9.98491e-08 4.56539e-07
-1.41552e-07 4.03769e-07
-1.79598e-07 6.2709e-07
-1.62711e-07 4.00182e-07
-1.83825e-07 4.71235e-07
-2.91529e-07 2.58512e-07
-1.9332e-07 4.91815e-07
-1.68398e-07 5.58544e-07
-1.18013e-07 4.9237e-07
-1.33967e-07 4.33517e-07
-1.677e-07 4.30648e-07
-2.98807e-07 5.48992e-07
-1.96996e-07 4.97963e-07
-1.42466e-07 3.87482e-07
-1.54729e-07 2.35625e-07
-1.19643e-07 5.47768e-07
-1.51108e-07 3.9189e-07
-1.85988e-07 4.71701e-07
-1.62297e-07 6.66442e-07
-1.57189e-07 5.50196e-07
-1.01024e-07 3.82906e-07
-1.32265e-07 2.20878e-07
-1.49226e-07 3.78708e-07
-1.76838e-07 5.56967e-07
-1.74222e-07 4.5321e-07
-1.43348e-07 2.5406e-07
-1.66835e-07 3.96881e-07
-1.95406e-07 5.05199e-07
-1.96422e-07 6.84891e-07
-1.92216e-07 4.84462e-07
-1.81008e-07 5.35601e-07
-2.65185e-07 8.78811e-07
-1.54318e-07 4.01759e-07
-7.01496e-08 2.66142e-07
-1.87779e-07 5.0882e-07
-1.98401e-07 7.95667e-07
-5.19428e-08 5.41551e-07
-1.40539e-07 4.89174e-07
-1.39399e-07 3.1817e-07
-8.36711e-08 7.12184e-07
-1.84903e-07 5.16684e-07
-1.46231e-07 5.13854e-07
-1.55841e-07 3.56592e-07
-2.15047e-07 7.60255e-07
-1.63964e-07 3.538e-07
-1.57566e-07 4.11878e-07
-1.92985e-07 4.98737e-07
-1.44692e-07 5.45091e-07
-1.74353e-07 5.61221e-07
-1.70977e-07 5.57069e-07
-1.77148e-07 5.48257e-07
-1.93736e-07 6.4625e-07
-1.55048e-07 5.21163e-07
-1.92094e-07 5.60594e-07
-1.25655e-07 4.59678e-07
-1.6155e-07 4.10007e-07
-1.60006e-07 3.97265e-07
-2.3446e-07 6.81446e-07
-7.8392e-08 3.64845e-07
-1.61104e-07 7.39583e-07
-1.75194e-07 5.64061e-07
-1.118e-07 8.3185e-07
-1.84242e-07 5.36175e-07
-1.52761e-07 3.75834e-07
-4.92861e-08 6.44278e-08
-1.2755e-07 5.09008e-07
-1.64521e-07 5.66735e-07
-2.8168e-08 4.64297e-07
-1.89782e-07 4.82494e-07
-1.51014e-07 5.18018e-07
-1.49858e-07 3.5785e-07
-2.60341e-07 6.34729e-08
-1.41335e-07 4.1648e-07
-2.58068e-07 2.06673e-07
-1.8138e-07 4.67649e-07
-1.29945e-07 3.70415e-07
-1.54239e-07 4.00011e-07
-1.56359e-07 5.42424e-07
-1.70012e-07 5.84113e-07
-1.69858e-07 5.65049e-07