<?xml version="1.0"?>
<VTKFile type="UnstructuredGrid">
  <UnstructuredGrid>
  <Piece NumberOfPoints="12411"  NumberOfCells="1379">
    <Points>
      <DataArray type="Float64" NumberOfComponents="3" format="ascii">
0 0 0
2.5273 -0.00535965 0
2.53165 4.28391 0
0 4.28571 0
1.26317 -0.00334433 0
2.52996 2.13962 0
1.26592 4.28507 0
0 2.14286 0
1.26517 2.14143 0
2.5273 -0.00535965 0
5.05605 -0.00929924 0
5.06276 4.2805 0
2.53165 4.28391 0
3.79166 -0.007255 0
5.05957 2.1358 0
3.79723 4.28237 0
2.52996 2.13962 0
3.79474 2.13777 0
5.05605 -0.00929924 0
7.58471 -0.0140531 0
7.59381 4.2758 0
5.06276 4.2805 0
6.3204 -0.0115366 0
7.58931 2.13103 0
6.32828 4.27832 0
5.05957 2.1358 0
6.32443 2.13357 0
7.58471 -0.0140531 0
10.1133 -0.0201741 0
10.1249 4.26969 0
7.59381 4.2758 0
8.84901 -0.0169283 0
10.1191 2.12492 0
8.85934 4.27293 0
7.58931 2.13103 0
8.85421 2.12816 0
10.1133 -0.0201741 0
12.6418 -0.0277882 0
12.656 4.26206 0
10.1249 4.26969 0
11.3776 -0.0237893 0
12.6489 2.1173 0
11.3904 4.26607 0
10.1191 2.12492 0
11.384 2.12131 0
12.6418 -0.0277882 0
15.1703 -0.0369808 0
15.1872 4.25284 0
12.656 4.26206 0
13.9061 -0.0321852 0
15.1788 2.1081 0
13.9216 4.25765 0
12.6489 2.1173 0
13.9139 2.1129 0
15.1703 -0.0369808 0
17.6989 -0.0477634 0
17.7184 4.24203 0
15.1872 4.25284 0
16.4346 -0.0421729 0
17.7087 2.0973 0
16.4528 4.24763 0
15.1788 2.1081 0
16.4437 2.1029 0
17.6989 -0.0477634 0
20.2274 -0.0601462 0
20.2497 4.22961 0
17.7184 4.24203 0
18.9632 -0.0537549 0
20.2386 2.0849 0
18.984 4.23602 0
17.7087 2.0973 0
18.9736 2.0913 0
20.2274 -0.0601462 0
22.756 -0.0741227 0
22.7809 4.2156 0
20.2497 4.22961 0
21.4917 -0.0669356 0
22.7685 2.07091 0
21.5153 4.2228 0
20.2386 2.0849 0
21.5035 2.0781 0
22.756 -0.0741227 0
25.2847 -0.0896872 0
25.3123 4.19999 0
22.7809 4.2156 0
24.0203 -0.0817069 0
25.2985 2.05532 0
24.0466 4.20799 0
22.7685 2.07091 0
24.0335 2.06331 0
25.2847 -0.0896872 0
27.8133 -0.106831 0
27.8436 4.18281 0
25.3123 4.19999 0
26.549 -0.0980621 0
27.8285 2.03816 0
26.5779 4.1916 0
25.2985 2.05532 0
26.5635 2.04694 0
27.8133 -0.106831 0
30.342 -0.125545 0
30.3749 4.16406 0
27.8436 4.18281 0
29.0777 -0.115992 0
30.3585 2.01942 0
29.1093 4.17363 0
27.8285 2.03816 0
29.0935 2.02899 0
30.342 -0.125545 0
32.8708 -0.145821 0
32.9063 4.14374 0
30.3749 4.16406 0
31.6064 -0.135488 0
32.8886 1.99913 0
31.6406 4.15409 0
30.3585 2.01942 0
31.6235 2.00947 0
32.8708 -0.145821 0
35.3995 -0.16765 0
35.4377 4.12186 0
32.9063 4.14374 0
34.1351 -0.156542 0
35.4187 1.97727 0
34.172 4.13299 0
32.8886 1.99913 0
34.1536 1.98839 0
35.3995 -0.16765 0
37.9284 -0.191024 0
37.9692 4.09844 0
35.4377 4.12186 0
36.6639 -0.179144 0
37.9488 1.95388 0
36.7034 4.11035 0
35.4187 1.97727 0
36.6837 1.96577 0
37.9284 -0.191024 0
40.4572 -0.215933 0
40.5006 4.07349 0
37.9692 4.09844 0
39.1928 -0.203287 0
40.4789 1.92894 0
39.2349 4.08616 0
37.9488 1.95388 0
39.2139 1.9416 0
40.4572 -0.215933 0
42.9861 -0.242371 0
43.0321 4.047 0
40.5006 4.07349 0
41.7216 -0.228962 0
43.0091 1.90248 0
41.7663 4.06043 0
40.4789 1.92894 0
41.744 1.9159 0
42.9861 -0.242371 0
45.515 -0.270327 0
45.5636 4.01899 0
43.0321 4.047 0
44.2505 -0.25616 0
45.5393 1.8745 0
44.2978 4.03319 0
43.0091 1.90248 0
44.2742 1.88868 0
45.515 -0.270327 0
48.044 -0.299795 0
48.0951 3.98948 0
45.5636 4.01899 0
46.7795 -0.284873 0
48.0695 1.845 0
46.8293 4.00442 0
45.5393 1.8745 0
46.8044 1.85994 0
48.044 -0.299795 0
50.5729 -0.330764 0
50.6266 3.95845 0
48.0951 3.98948 0
49.3084 -0.315092 0
50.5998 1.81401 0
49.3608 3.97415 0
48.0695 1.845 0
49.3347 1.82969 0
50.5729 -0.330764 0
53.102 -0.363228 0
53.1581 3.92594 0
50.6266 3.95845 0
51.8374 -0.34681 0
53.1301 1.78151 0
51.8924 3.94238 0
50.5998 1.81401 0
51.8649 1.79795 0
53.102 -0.363228 0
55.631 -0.397177 0
55.6897 3.89193 0
53.1581 3.92594 0
54.3665 -0.380017 0
55.6604 1.74754 0
54.4239 3.90912 0
53.1301 1.78151 0
54.3952 1.76471 0
55.631 -0.397177 0
58.1601 -0.432603 0
58.2213 3.85645 0
55.6897 3.89193 0
56.8955 -0.414706 0
58.1907 1.71208 0
56.9555 3.87437 0
55.6604 1.74754 0
56.9255 1.72999 0
58.1601 -0.432603 0
60.6892 -0.469498 0
60.7529 3.8195 0
58.2213 3.85645 0
59.4246 -0.450868 0
60.7211 1.67516 0
59.4871 3.83816 0
58.1907 1.71208 0
59.4559 1.6938 0
60.6892 -0.469498 0
63.2183 -0.507854 0
63.2845 3.78108 0
60.7529 3.8195 0
61.9538 -0.488494 0
63.2514 1.63677 0
62.0187 3.80047 0
60.7211 1.67516 0
61.9862 1.65614 0
63.2183 -0.507854 0
65.7475 -0.547661 0
65.8161 3.74121 0
63.2845 3.78108 0
64.4829 -0.527576 0
65.7818 1.59693 0
64.5503 3.76133 0
63.2514 1.63677 0
64.5166 1.61703 0
65.7475 -0.547661 0
68.2767 -0.588912 0
68.3477 3.6999 0
65.8161 3.74121 0
67.0121 -0.568107 0
68.3122 1.55565 0
67.0819 3.72074 0
65.7818 1.59693 0
67.047 1.57647 0
68.2767 -0.588912 0
70.8059 -0.631598 0
70.8793 3.65715 0
68.3477 3.6999 0
69.5413 -0.610076 0
70.8427 1.51293 0
69.6135 3.67871 0
68.3122 1.55565 0
69.5774 1.53447 0
70.8059 -0.631598 0
73.3351 -0.675711 0
73.411 3.61298 0
70.8793 3.65715 0
72.0705 -0.653477 0
73.3731 1.46878 0
72.1452 3.63524 0
70.8427 1.51293 0
72.1079 1.49104 0
73.3351 -0.675711 0
75.8644 -0.721242 0
75.9427 3.56738 0
73.411 3.61298 0
74.5998 -0.6983 0
75.9036 1.42322 0
74.6768 3.59036 0
73.3731 1.46878 0
74.6383 1.44618 0
75.8644 -0.721242 0
78.3937 -0.768183 0
78.4743 3.52037 0
75.9427 3.56738 0
77.129 -0.744537 0
78.4341 1.37625 0
77.2085 3.54405 0
75.9036 1.42322 0
77.1688 1.39991 0
78.3937 -0.768183 0
80.923 -0.816526 0
81.006 3.47196 0
78.4743 3.52037 0
79.6584 -0.79218 0
80.9646 1.32787 0
79.7402 3.49634 0
78.4341 1.37625 0
79.6993 1.35223 0
80.923 -0.816526 0
83.4524 -0.866262 0
83.5377 3.42216 0
81.006 3.47196 0
82.1877 -0.84122 0
83.4951 1.2781 0
82.2719 3.44724 0
80.9646 1.32787 0
82.2298 1.30316 0
83.4524 -0.866262 0
85.9817 -0.917382 0
86.0694 3.37097 0
83.5377 3.42216 0
84.717 -0.891649 0
86.0256 1.22694 0
84.8036 3.39674 0
83.4951 1.2781 0
84.7603 1.25269 0
85.9817 -0.917382 0
88.5111 -0.969879 0
88.6011 3.3184 0
86.0694 3.37097 0
87.2464 -0.943459 0
88.5561 1.17441 0
87.3353 3.34486 0
86.0256 1.22694 0
87.2909 1.20085 0
88.5111 -0.969879 0
91.0405 -1.02374 0
91.1328 3.26447 0
88.6011 3.3184 0
89.7758 -0.996641 0
91.0867 1.12051 0
89.867 3.29161 0
88.5561 1.17441 0
89.8214 1.14763 0
91.0405 -1.02374 0
93.5699 -1.07897 0
93.6646 3.20917 0
91.1328 3.26447 0
92.3052 -1.05119 0
93.6173 1.06525 0
92.3987 3.23699 0
91.0867 1.12051 0
92.352 1.09305 0
93.5699 -1.07897 0
96.0994 -1.13554 0
96.1963 3.15252 0
93.6646 3.20917 0
94.8347 -1.10709 0
96.1479 1.00863 0
94.9304 3.18102 0
93.6173 1.06525 0
94.8826 1.03711 0
96.0994 -1.13554 0
98.6289 -1.19346 0
98.728 3.09453 0
96.1963 3.15252 0
97.3641 -1.16433 0
98.6785 0.950679 0
97.4622 3.1237 0
96.1479 1.00863 0
97.4132 0.979824 0
98.6289 -1.19346 0
101.158 -1.25271 0
101.26 3.03521 0
98.728 3.09453 0
99.8936 -1.22292 0
101.209 0.891388 0
99.9939 3.06504 0
98.6785 0.950679 0
99.9438 0.9212 0
101.158 -1.25271 0
103.688 -1.31329 0
103.792 2.97455 0
101.26 3.03521 0
102.423 -1.28284 0
103.74 0.830772 0
102.526 3.00504 0
101.209 0.891388 0
102.474 0.861245 0
103.688 -1.31329 0
106.217 -1.37519 0
106.323 2.91258 0
103.792 2.97455 0
104.953 -1.34408 0
106.27 0.768837 0
105.057 2.94373 0
103.74 0.830772 0
105.005 0.799969 0
106.217 -1.37519 0
108.747 -1.43839 0
108.855 2.8493 0
106.323 2.91258 0
107.482 -1.40663 0
108.801 0.705593 0
107.589 2.8811 0
106.27 0.768837 0
107.536 0.737378 0
108.747 -1.43839 0
111.276 -1.5029 0
111.387 2.78472 0
108.855 2.8493 0
110.012 -1.47048 0
111.332 0.641048 0
110.121 2.81717 0
108.801 0.705593 0
110.066 0.673483 0
111.276 -1.5029 0
113.806 -1.56869 0
113.919 2.71884 0
111.387 2.78472 0
112.541 -1.53563 0
113.862 0.575211 0
112.653 2.75194 0
111.332 0.641048 0
112.597 0.608291 0
113.806 -1.56869 0
116.336 -1.63578 0
116.45 2.65168 0
113.919 2.71884 0
115.071 -1.60207 0
116.393 0.508089 0
115.184 2.68542 0
113.862 0.575211 0
115.128 0.54181 0
116.336 -1.63578 0
118.865 -1.70413 0
118.982 2.58324 0
116.45 2.65168 0
117.6 -1.66979 0
118.924 0.439692 0
117.716 2.61762 0
116.393 0.508089 0
117.658 0.474049 0
118.865 -1.70413 0
121.395 -1.77376 0
121.514 2.51354 0
118.982 2.58324 0
120.13 -1.73879 0
121.454 0.370027 0
120.248 2.54855 0
118.924 0.439692 0
120.189 0.405017 0
121.395 -1.77376 0
123.925 -1.84464 0
124.046 2.44258 0
121.514 2.51354 0
122.66 -1.80904 0
123.985 0.299103 0
122.78 2.47822 0
121.454 0.370027 0
122.72 0.334722 0
123.925 -1.84464 0
126.454 -1.91677 0
126.577 2.37036 0
124.046 2.44258 0
125.189 -1.88055 0
126.516 0.226929 0
125.311 2.40663 0
123.985 0.299103 0
125.25 0.263172 0
126.454 -1.91677 0
128.984 -1.99014 0
129.109 2.29691 0
126.577 2.37036 0
127.719 -1.9533 0
129.047 0.153513 0
127.843 2.33379 0
126.516 0.226929 0
127.781 0.190376 0
128.984 -1.99014 0
131.514 -2.06475 0
131.641 2.22222 0
129.109 2.29691 0
130.249 -2.02729 0
131.577 0.0788635 0
130.375 2.25972 0
129.047 0.153513 0
130.312 0.116342 0
131.514 -2.06475 0
134.043 -2.14058 0
134.173 2.1463 0
131.641 2.22222 0
132.778 -2.10251 0
134.108 0.00298855 0
132.907 2.18441 0
131.577 0.0788635 0
132.843 0.0410786 0
134.043 -2.14058 0
136.573 -2.21763 0
136.704 2.06917 0
134.173 2.1463 0
135.308 -2.17896 0
136.639 -0.0741031 0
135.438 2.10789 0
134.108 0.00298855 0
135.373 -0.0354057 0
136.573 -2.21763 0
139.103 -2.29589 0
139.236 1.99083 0
136.704 2.06917 0
137.838 -2.25661 0
139.169 -0.152403 0
137.97 2.03015 0
136.639 -0.0741031 0
137.904 -0.113103 0
139.103 -2.29589 0
141.632 -2.37535 0
141.768 1.91129 0
139.236 1.99083 0
140.368 -2.33547 0
141.7 -0.231903 0
140.502 1.95121 0
139.169 -0.152403 0
140.435 -0.192004 0
141.632 -2.37535 0
144.162 -2.45599 0
144.3 1.83055 0
141.768 1.91129 0
142.897 -2.41552 0
144.231 -0.312594 0
143.034 1.87107 0
141.7 -0.231903 0
142.966 -0.2721 0
144.162 -2.45599 0
146.692 -2.53782 0
146.831 1.74864 0
144.3 1.83055 0
145.427 -2.49676 0
146.762 -0.394469 0
145.566 1.78974 0
144.231 -0.312594 0
145.496 -0.353384 0
146.692 -2.53782 0
149.222 -2.62083 0
149.363 1.66554 0
146.831 1.74864 0
147.957 -2.57918 0
149.292 -0.477518 0
148.097 1.70724 0
[...]
    <PointData>
      <DataArray type="Float64" NumberOfComponents="3" Name="Displacement" format="ascii">
0 0 0
-0.0107735 -0.00535965 -0.00535965
-0.00642589 -0.0018062 -0.0018062
0 0 0
-0.00586404 -0.00334433 -0.00334433
-0.00811578 -0.00323755 -0.00323755
-0.00311776 -0.000646249 -0.000646249
0 0 0
-0.00387008 -0.0014278 -0.0014278
-0.0107735 -0.00535965 -0.00535965
-0.0200947 -0.00929924 -0.00929924
-0.0133851 -0.00521914 -0.00521914
-0.00642589 -0.0018062 -0.0018062
-0.0154471 -0.007255 -0.007255
-0.0165719 -0.00705235 -0.00705235
-0.00987237 -0.00334779 -0.00334779
-0.00811578 -0.00323755 -0.00323755
-0.0123677 -0.0050878 -0.0050878
-0.0200947 -0.00929924 -0.00929924
-0.0295021 -0.0140531 -0.0140531
-0.0204077 -0.00990982 -0.00990982
-0.0133851 -0.00521914 -0.00521914
-0.0247814 -0.0115366 -0.0115366
-0.0249054 -0.0118244 -0.0118244
-0.0169005 -0.00739916 -0.00739916
-0.0165719 -0.00705235 -0.00705235
-0.0207493 -0.00928249 -0.00928249
-0.0295021 -0.0140531 -0.0140531
-0.0389896 -0.0201741 -0.0201741
-0.0273969 -0.0160219 -0.0160219
-0.0204077 -0.00990982 -0.00990982
-0.0342386 -0.0169283 -0.0169283
-0.03317 -0.0179335 -0.0179335
-0.023908 -0.0127798 -0.0127798
-0.0249054 -0.0118244 -0.0118244
-0.0290433 -0.0146991 -0.0146991
-0.0389896 -0.0201741 -0.0201741
-0.0485307 -0.0277882 -0.0277882
-0.0343298 -0.0236571 -0.0236571
-0.0273969 -0.0160219 -0.0160219
-0.0437562 -0.0237893 -0.0237893
-0.0414097 -0.0255595 -0.0255595
-0.0308699 -0.0196448 -0.0196448
-0.03317 -0.0179335 -0.0179335
-0.0372923 -0.0215513 -0.0215513
-0.0485307 -0.0277882 -0.0277882
-0.0580789 -0.0369808 -0.0369808
-0.0412213 -0.0328737 -0.0328737
-0.0343298 -0.0236571 -0.0236571
-0.0533055 -0.0321852 -0.0321852
-0.0496257 -0.0347591 -0.0347591
-0.0377803 -0.028066 -0.028066
-0.0414097 -0.0255595 -0.0255595
-0.0455207 -0.0299608 -0.0299608
-0.0580789 -0.0369808 -0.0369808
-0.0676182 -0.0477634 -0.0477634
-0.048075 -0.0436879 -0.0436879
-0.0412213 -0.0328737 -0.0328737
-0.0628506 -0.0421729 -0.0421729
-0.0578182 -0.0455567 -0.0455567
-0.0446526 -0.0380807 -0.0380807
-0.0496257 -0.0347591 -0.0347591
-0.0537251 -0.0399576 -0.0399576
-0.0676182 -0.0477634 -0.0477634
-0.0771317 -0.0601462 -0.0601462
-0.0548972 -0.0561041 -0.0561041
-0.048075 -0.0436879 -0.0436879
-0.0723787 -0.0537549 -0.0537549
-0.0659828 -0.057955 -0.057955
-0.0514898 -0.049696 -0.049696
-0.0578182 -0.0455567 -0.0455567
-0.0619042 -0.0515559 -0.0515559
-0.0771317 -0.0601462 -0.0601462
-0.0866132 -0.0741227 -0.0741227
-0.0616898 -0.070117 -0.070117
-0.0548972 -0.0561041 -0.0561041
-0.0818768 -0.0669356 -0.0669356
-0.0741178 -0.0719498 -0.0719498
-0.0582971 -0.0629114 -0.0629114
-0.0659828 -0.057955 -0.057955
-0.0700541 -0.0647532 -0.0647532
-0.0866132 -0.0741227 -0.0741227
-0.0960582 -0.0896872 -0.0896872
-0.0684551 -0.0857196 -0.0857196
-0.0616898 -0.070117 -0.070117
-0.0913404 -0.0817069 -0.0817069
-0.0822216 -0.0875337 -0.0875337
-0.0650758 -0.0777201 -0.0777201
-0.0741178 -0.0719498 -0.0719498
-0.0781736 -0.0795437 -0.0795437
-0.0960582 -0.0896872 -0.0896872
-0.105465 -0.106831 -0.106831
-0.0751943 -0.102903 -0.102903
-0.0684551 -0.0857196 -0.0857196
-0.100766 -0.0980621 -0.0980621
-0.0902939 -0.104698 -0.104698
-0.0718279 -0.0941142 -0.0941142
-0.0822216 -0.0875337 -0.0875337
-0.0862617 -0.0959188 -0.0959188
-0.105465 -0.106831 -0.106831
-0.114834 -0.125545 -0.125545
-0.0819085 -0.121659 -0.121659
-0.0751943 -0.102903 -0.102903
-0.110154 -0.115992 -0.115992
-0.0983349 -0.123434 -0.123434
-0.0785545 -0.112085 -0.112085
-0.0902939 -0.104698 -0.104698
-0.0943183 -0.11387 -0.11387
-0.114834 -0.125545 -0.125545
-0.124164 -0.145821 -0.145821
-0.0885988 -0.141977 -0.141977
-0.0819085 -0.121659 -0.121659
-0.119504 -0.135488 -0.135488
-0.106345 -0.143732 -0.143732
-0.0852566 -0.131623 -0.131623
-0.0983349 -0.123434 -0.123434
-0.102344 -0.133388 -0.133388
-0.124164 -0.145821 -0.145821
-0.133458 -0.16765 -0.16765
-0.0952659 -0.163851 -0.163851
-0.0885988 -0.141977 -0.141977
-0.128816 -0.156542 -0.156542
-0.114325 -0.165584 -0.165584
-0.0919352 -0.15272 -0.15272
-0.106345 -0.143732 -0.143732
-0.110339 -0.154464 -0.154464
-0.133458 -0.16765 -0.16765
-0.142714 -0.191024 -0.191024
-0.101911 -0.18727 -0.18727
-0.0952659 -0.163851 -0.163851
-0.13809 -0.179144 -0.179144
-0.122276 -0.188982 -0.188982
-0.0985911 -0.175368 -0.175368
-0.114325 -0.165584 -0.165584
-0.118304 -0.17709 -0.17709
-0.142714 -0.191024 -0.191024
-0.151935 -0.215933 -0.215933
-0.108535 -0.212227 -0.212227
-0.101911 -0.18727 -0.18727
-0.147329 -0.203287 -0.203287
-0.130198 -0.213916 -0.213916
-0.105225 -0.199557 -0.199557
-0.122276 -0.188982 -0.188982
-0.12624 -0.201257 -0.201257
-0.151935 -0.215933 -0.215933
-0.161121 -0.242371 -0.242371
-0.115138 -0.238713 -0.238713
-0.108535 -0.212227 -0.212227
-0.156532 -0.228962 -0.228962
-0.138092 -0.240378 -0.240378
-0.111839 -0.22528 -0.22528
-0.130198 -0.213916 -0.213916
-0.134148 -0.226957 -0.226957
-0.161121 -0.242371 -0.242371
-0.170273 -0.270327 -0.270327
-0.121721 -0.26672 -0.26672
-0.115138 -0.238713 -0.238713
-0.165701 -0.25616 -0.25616
-0.14596 -0.268361 -0.268361
-0.118432 -0.252527 -0.252527
-0.138092 -0.240378 -0.240378
-0.142029 -0.25418 -0.25418
-0.170273 -0.270327 -0.270327
-0.179392 -0.299795 -0.299795
-0.128286 -0.296238 -0.296238
-0.121721 -0.26672 -0.26672
-0.174836 -0.284873 -0.284873
-0.153802 -0.297855 -0.297855
-0.125006 -0.281291 -0.281291
-0.14596 -0.268361 -0.268361
-0.149884 -0.282919 -0.282919
-0.179392 -0.299795 -0.299795
-0.188478 -0.330764 -0.330764
-0.134833 -0.327261 -0.327261
-0.128286 -0.296238 -0.296238
-0.183939 -0.315092 -0.315092
-0.161618 -0.328852 -0.328852
-0.131561 -0.311562 -0.311562
-0.153802 -0.297855 -0.297855
-0.157713 -0.313166 -0.313166
-0.188478 -0.330764 -0.330764
-0.197533 -0.363228 -0.363228
-0.141362 -0.359778 -0.359778
-0.134833 -0.327261 -0.327261
-0.193009 -0.34681 -0.34681
-0.16941 -0.361343 -0.361343
-0.138099 -0.343333 -0.343333
-0.161618 -0.328852 -0.328852
-0.165517 -0.344911 -0.344911
-0.197533 -0.363228 -0.363228
-0.206556 -0.397177 -0.397177
-0.147875 -0.393783 -0.393783
-0.141362 -0.359778 -0.359778
-0.202048 -0.380017 -0.380017
-0.177178 -0.395321 -0.395321
-0.144621 -0.376595 -0.376595
-0.16941 -0.361343 -0.361343
-0.173297 -0.378147 -0.378147
-0.206556 -0.397177 -0.397177
-0.21555 -0.432603 -0.432603
-0.154372 -0.429266 -0.429266
-0.147875 -0.393783 -0.393783
-0.211057 -0.414706 -0.414706
-0.184924 -0.430776 -0.430776
-0.151126 -0.41134 -0.41134
-0.177178 -0.395321 -0.395321
-0.181054 -0.412865 -0.412865
-0.21555 -0.432603 -0.432603
-0.224515 -0.469498 -0.469498
-0.160855 -0.466219 -0.466219
-0.154372 -0.429266 -0.429266
-0.220036 -0.450868 -0.450868
-0.192647 -0.467701 -0.467701
-0.157615 -0.447559 -0.447559
-0.184924 -0.430776 -0.430776
-0.188788 -0.449056 -0.449056
-0.224515 -0.469498 -0.469498
-0.233451 -0.507854 -0.507854
-0.167323 -0.504633 -0.504633
-0.160855 -0.466219 -0.466219
-0.228986 -0.488494 -0.488494
-0.200349 -0.506087 -0.506087
-0.16409 -0.485244 -0.485244
-0.192647 -0.467701 -0.467701
-0.196501 -0.486712 -0.486712
-0.233451 -0.507854 -0.507854
-0.242359 -0.547661 -0.547661
-0.173777 -0.544501 -0.544501
-0.167323 -0.504633 -0.504633
-0.237908 -0.527576 -0.527576
-0.20803 -0.545926 -0.545926
-0.170552 -0.524386 -0.524386
-0.200349 -0.506087 -0.506087
-0.204192 -0.525825 -0.525825
-0.242359 -0.547661 -0.547661
-0.251239 -0.588912 -0.588912
-0.180219 -0.585813 -0.585813
-0.173777 -0.544501 -0.544501
-0.246802 -0.568107 -0.568107
-0.215691 -0.587208 -0.587208
-0.177 -0.564977 -0.564977
-0.20803 -0.545926 -0.545926
-0.211863 -0.566387 -0.566387
-0.251239 -0.588912 -0.588912
-0.260094 -0.631598 -0.631598
-0.186649 -0.628562 -0.628562
-0.180219 -0.585813 -0.585813
-0.25567 -0.610076 -0.610076
-0.223333 -0.629927 -0.629927
-0.183435 -0.607008 -0.607008
-0.215691 -0.587208 -0.587208
-0.219515 -0.608388 -0.608388
-0.260094 -0.631598 -0.631598
-0.268922 -0.675711 -0.675711
-0.193067 -0.672738 -0.672738
-0.186649 -0.628562 -0.628562
-0.264511 -0.653477 -0.653477
-0.230956 -0.674072 -0.674072
-0.189859 -0.650472 -0.650472
-0.223333 -0.629927 -0.629927
-0.227147 -0.651821 -0.651821
-0.268922 -0.675711 -0.675711
-0.277725 -0.721242 -0.721242
-0.199474 -0.718334 -0.718334
-0.193067 -0.672738 -0.672738
-0.273327 -0.6983 -0.6983
-0.238562 -0.719637 -0.719637
-0.196272 -0.695359 -0.695359
-0.230956 -0.674072 -0.674072
-0.234761 -0.696678 -0.696678
-0.277725 -0.721242 -0.721242
-0.286504 -0.768183 -0.768183
-0.205871 -0.765341 -0.765341
-0.199474 -0.718334 -0.718334
-0.282118 -0.744537 -0.744537
-0.246149 -0.766612 -0.766612
-0.202674 -0.741662 -0.741662
-0.238562 -0.719637 -0.719637
-0.242358 -0.742948 -0.742948
-0.286504 -0.768183 -0.768183
-0.295259 -0.816526 -0.816526
-0.212259 -0.813751 -0.813751
-0.205871 -0.765341 -0.765341
-0.290884 -0.79218 -0.79218
-0.253721 -0.814989 -0.814989
-0.209066 -0.789371 -0.789371
-0.246149 -0.766612 -0.766612
-0.249937 -0.790625 -0.790625
-0.295259 -0.816526 -0.816526
-0.30399 -0.866262 -0.866262
-0.218637 -0.863554 -0.863554
-0.212259 -0.813751 -0.813751
-0.299627 -0.84122 -0.84122
-0.261275 -0.864759 -0.864759
-0.215449 -0.838479 -0.838479
-0.253721 -0.814989 -0.814989
-0.2575 -0.8397 -0.8397
-0.30399 -0.866262 -0.866262
-0.312699 -0.917382 -0.917382
-0.225008 -0.914744 -0.914744
-0.218637 -0.863554 -0.863554
-0.308347 -0.891649 -0.891649
-0.268815 -0.915915 -0.915915
-0.221824 -0.888976 -0.888976
-0.261275 -0.864759 -0.864759
-0.265047 -0.890165 -0.890165
-0.312699 -0.917382 -0.917382
-0.321385 -0.969879 -0.969879
-0.23137 -0.96731 -0.96731
-0.225008 -0.914744 -0.914744
-0.317045 -0.943459 -0.943459
-0.276339 -0.968448 -0.968448
-0.22819 -0.940855 -0.940855
-0.268815 -0.915915 -0.915915
-0.272579 -0.94201 -0.94201
-0.321385 -0.969879 -0.969879
-0.33005 -1.02374 -1.02374
-0.237725 -1.02125 -1.02125
-0.23137 -0.96731 -0.96731
-0.32572 -0.996641 -0.996641
-0.28385 -1.02235 -1.02235
-0.234549 -0.994108 -0.994108
-0.276339 -0.968448 -0.968448
-0.280096 -0.995228 -0.995228
-0.33005 -1.02374 -1.02374
-0.338694 -1.07897 -1.07897
-0.244074 -1.07654 -1.07654
-0.237725 -1.02125 -1.02125
-0.334375 -1.05119 -1.05119
-0.291346 -1.07761 -1.07761
-0.240901 -1.04872 -1.04872
-0.28385 -1.02235 -1.02235
-0.287599 -1.04981 -1.04981
-0.338694 -1.07897 -1.07897
-0.347318 -1.13554 -1.13554
-0.250417 -1.13319 -1.13319
-0.244074 -1.07654 -1.07654
-0.343009 -1.10709 -1.10709
-0.298829 -1.13422 -1.13422
-0.247246 -1.1047 -1.1047
-0.291346 -1.07761 -1.07761
-0.295089 -1.10575 -1.10575
-0.347318 -1.13554 -1.13554
-0.355922 -1.19346 -1.19346
-0.256754 -1.19118 -1.19118
-0.250417 -1.13319 -1.13319
-0.351622 -1.16433 -1.16433
-0.306299 -1.19218 -1.19218
-0.253586 -1.16202 -1.16202
-0.298829 -1.13422 -1.13422
-0.302566 -1.16303 -1.16303
-0.355922 -1.19346 -1.19346
-0.364506 -1.25271 -1.25271
-0.263086 -1.25051 -1.25051
-0.256754 -1.19118 -1.19118
-0.360216 -1.22292 -1.22292
-0.313757 -1.25147 -1.25147
-0.25992 -1.22068 -1.22068
-0.306299 -1.19218 -1.19218
-0.31003 -1.22166 -1.22166
-0.364506 -1.25271 -1.25271
-0.373071 -1.31329 -1.31329
-0.269413 -1.31116 -1.31116
-0.263086 -1.25051 -1.25051
-0.368791 -1.28284 -1.28284
-0.321204 -1.31209 -1.31209
-0.26625 -1.28067 -1.28067
-0.313757 -1.25147 -1.25147
-0.317482 -1.28161 -1.28161
-0.373071 -1.31329 -1.31329
-0.381618 -1.37519 -1.37519
-0.275737 -1.37313 -1.37313
-0.269413 -1.31116 -1.31116
-0.377347 -1.34408 -1.34408
-0.328639 -1.37402 -1.37402
-0.272576 -1.34198 -1.34198
-0.321204 -1.31209 -1.31209
-0.324922 -1.34289 -1.34289
-0.381618 -1.37519 -1.37519
-0.390147 -1.43839 -1.43839
-0.282057 -1.43641 -1.43641
-0.275737 -1.37313 -1.37313
-0.385885 -1.40663 -1.40663
-0.336063 -1.43726 -1.43726
-0.278897 -1.40461 -1.40461
-0.328639 -1.37402 -1.37402
-0.332352 -1.40548 -1.40548
-0.390147 -1.43839 -1.43839
-0.398658 -1.5029 -1.5029
-0.288373 -1.501 -1.501
-0.282057 -1.43641 -1.43641
-0.394405 -1.47048 -1.47048
-0.343477 -1.50181 -1.50181
-0.285215 -1.46854 -1.46854
-0.336063 -1.43726 -1.43726
-0.339771 -1.46937 -1.46937
-0.398658 -1.5029 -1.5029
-0.407153 -1.56869 -1.56869
-0.294688 -1.56687 -1.56687
-0.288373 -1.501 -1.501
-0.402908 -1.53563 -1.53563
-0.350881 -1.56765 -1.56765
-0.291531 -1.53377 -1.53377
-0.343477 -1.50181 -1.50181
-0.34718 -1.53457 -1.53457
-0.407153 -1.56869 -1.56869
-0.415631 -1.63578 -1.63578
-0.300999 -1.63403 -1.63403
-0.294688 -1.56687 -1.56687
-0.411394 -1.60207 -1.60207
-0.358276 -1.63477 -1.63477
-0.297844 -1.60029 -1.60029
-0.350881 -1.56765 -1.56765
-0.35458 -1.60105 -1.60105
-0.415631 -1.63578 -1.63578
-0.424092 -1.70413 -1.70413
-0.307309 -1.70247 -1.70247
-0.300999 -1.63403 -1.63403
-0.419864 -1.66979 -1.66979
-0.365662 -1.70317 -1.70317
-0.304155 -1.66809 -1.66809
-0.358276 -1.63477 -1.63477
-0.36197 -1.66881 -1.66881
-0.424092 -1.70413 -1.70413
-0.432538 -1.77376 -1.77376
-0.313618 -1.77217 -1.77217
-0.307309 -1.70247 -1.70247
-0.428317 -1.73879 -1.73879
-0.373039 -1.77283 -1.77283
-0.310464 -1.73716 -1.73716
-0.365662 -1.70317 -1.70317
-0.369352 -1.73784 -1.73784
-0.432538 -1.77376 -1.77376
-0.440969 -1.84464 -1.84464
-0.319926 -1.84314 -1.84314
-0.313618 -1.77217 -1.77217
-0.436756 -1.80904 -1.80904
-0.380408 -1.84375 -1.84375
-0.316772 -1.8075 -1.8075
-0.373039 -1.77283 -1.77283
-0.376725 -1.80814 -1.80814
-0.440969 -1.84464 -1.84464
-0.449385 -1.91677 -1.91677
-0.326233 -1.91535 -1.91535
-0.319926 -1.84314 -1.84314
-0.445179 -1.88055 -1.88055
-0.38777 -1.91593 -1.91593
-0.32308 -1.87909 -1.87909
-0.380408 -1.84375 -1.84375
-0.38409 -1.87969 -1.87969
-0.449385 -1.91677 -1.91677
-0.457786 -1.99014 -1.99014
-0.33254 -1.98881 -1.98881
-0.326233 -1.91535 -1.91535
-0.453587 -1.9533 -1.9533
-0.395124 -1.98934 -1.98934
-0.329386 -1.95192 -1.95192
-0.38777 -1.91593 -1.91593
-0.391448 -1.95248 -1.95248
-0.457786 -1.99014 -1.99014
-0.466173 -2.06475 -2.06475
-0.338847 -2.0635 -2.0635
-0.33254 -1.98881 -1.98881
-0.461981 -2.02729 -2.02729
-0.402471 -2.06399 -2.06399
-0.335693 -2.026 -2.026
-0.395124 -1.98934 -1.98934
-0.398798 -2.02652 -2.02652
-0.466173 -2.06475 -2.06475
-0.474546 -2.14058 -2.14058
-0.345155 -2.13941 -2.13941
-0.338847 -2.0635 -2.0635
-0.470361 -2.10251 -2.10251
-0.409811 -2.13987 -2.13987
-0.342001 -2.1013 -2.1013
-0.402471 -2.06399 -2.06399
-0.406142 -2.10178 -2.10178
-0.474546 -2.14058 -2.14058
-0.482905 -2.21763 -2.21763
-0.351463 -2.21655 -2.21655
-0.345155 -2.13941 -2.13941
-0.478727 -2.17896 -2.17896
-0.417145 -2.21696 -2.21696
-0.348309 -2.17783 -2.17783
-0.409811 -2.13987 -2.13987
-0.413479 -2.17826 -2.17826
-0.482905 -2.21763 -2.21763
-0.491251 -2.29589 -2.29589
-0.357772 -2.29489 -2.29489
-0.351463 -2.21655 -2.21655
-0.48708 -2.25661 -2.25661
-0.424473 -2.29526 -2.29526
-0.354617 -2.25557 -2.25557
-0.417145 -2.21696 -2.21696
-0.420809 -2.25596 -2.25596
-0.491251 -2.29589 -2.29589
-0.499584 -2.37535 -2.37535
-0.364083 -2.37443 -2.37443
-0.357772 -2.29489 -2.29489
-0.495419 -2.33547 -2.33547
-0.431795 -2.37476 -2.37476
-0.360928 -2.33451 -2.33451
-0.424473 -2.29526 -2.29526
-0.428134 -2.33486 -2.33486
-0.499584 -2.37535 -2.37535
-0.507905 -2.45599 -2.45599
-0.370396 -2.45516 -2.45516
-0.364083 -2.37443 -2.37443
-0.503746 -2.41552 -2.41552
-0.439111 -2.45545 -2.45545
-0.36724 -2.41465 -2.41465
-0.431795 -2.37476 -2.37476
-0.435454 -2.41496 -2.41496
-0.507905 -2.45599 -2.45599
-0.516214 -2.53782 -2.53782
-0.376711 -2.53708 -2.53708
-0.370396 -2.45516 -2.45516
-0.512061 -2.49676 -2.49676
-0.446423 -2.53733 -2.53733
-0.373553 -2.49597 -2.49597
-0.439111 -2.45545 -2.45545
-0.442768 -2.49624 -2.49624
-0.516214 -2.53782 -2.53782
-0.52451 -2.62083 -2.62083
-0.383028 -2.62017 -2.62017
-0.376711 -2.53708 -2.53708
-0.520363 -2.57918 -2.57918
-0.45373 -2.62038 -2.62038
-0.379869 -2.57848 -2.57848
-0.446423 -2.53733 -2.53733
-0.450077 -2.5787 -2.5787
-0.52451 -2.62083 -2.62083
-0.532795 -2.705 -2.705
-0.389348 -2.70443 -2.70443
-0.383028 -2.62017 -2.62017
-0.528654 -2.66277 -2.66277
-0.461032 -2.70459 -2.70459
-0.386188 -2.66215 -2.66215
-0.45373 -2.62038 -2.62038
-0.457381 -2.66234 -2.66234
-0.532795 -2.705 -2.705
-0.541068 -2.79033 -2.79033
-0.39567 -2.78984 -2.78984
-0.389348 -2.70443 -2.70443
-0.536933 -2.74752 -2.74752
-0.46833 -2.78996 -2.78996
-0.392509 -2.74699 -2.74699
-0.461032 -2.70459 -2.70459
-0.464681 -2.74713 -2.74713
-0.541068 -2.79033 -2.79033
-0.54933 -2.87681 -2.87681
-0.401996 -2.87641 -2.87641
-0.39567 -2.78984 -2.78984
-0.5452 -2.83342 -2.83342
-0.475623 -2.87649 -2.87649
-0.398833 -2.83298 -2.83298
-0.46833 -2.78996 -2.78996
-0.471977 -2.83308 -2.83308
-0.54933 -2.87681 -2.87681
-0.55758 -2.96442 -2.96442
-0.408325 -2.96412 -2.96412
-0.401996 -2.87641 -2.87641
-0.553456 -2.92047 -2.92047
-0.482913 -2.96415 -2.96415
-0.40516 -2.92012 -2.92012
-0.475623 -2.87649 -2.87649
-0.479269 -2.92018 -2.92018
-0.55758 -2.96442 -2.96442
-0.56582 -3.05317 -3.05317
-0.414658 -3.05296 -3.05296
-0.408325 -2.96412 -2.96412
-0.561702 -3.00866 -3.00866
-0.4902 -3.05294 -3.05294
-0.411491 -3.00839 -3.00839
-0.482913 -2.96415 -2.96415
-0.486557 -3.00841 -3.00841
-0.56582 -3.05317 -3.05317
-0.57405 -3.14305 -3.14305
-0.420994 -3.14292 -3.14292
-0.414658 -3.05296 -3.05296
-0.569937 -3.09797 -3.09797
-0.497482 -3.14286 -3.14286
-0.417825 -3.0978 -3.0978
-0.4902 -3.05294 -3.05294
-0.493841 -3.09776 -3.09776
-0.57405 -3.14305 -3.14305
-0.582269 -3.23404 -3.23404
-0.427334 -3.234 -3.234
-0.420994 -3.14292 -3.14292
-0.578161 -3.1884 -3.1884
-0.504762 -3.2339 -3.2339
-0.424164 -3.18832 -3.18832
-0.497482 -3.14286 -3.14286
-0.501123 -3.18824 -3.18824
-0.582269 -3.23404 -3.23404
-0.590478 -3.32614 -3.32614
-0.433679 -3.32618 -3.32618
-0.427334 -3.234 -3.234
-0.586375 -3.27995 -3.27995
-0.512039 -3.32604 -3.32604
-0.430506 -3.27995 -3.27995
-0.504762 -3.2339 -3.2339
-0.508401 -3.27983 -3.27983
-0.590478 -3.32614 -3.32614
-0.598676 -3.41933 -3.41933
-0.440027 -3.41947 -3.41947
-0.433679 -3.32618 -3.32618
-0.594578 -3.3726 -3.3726
-0.519312 -3.41928 -3.41928
-0.436852 -3.37269 -3.37269
-0.512039 -3.32604 -3.32604
-0.515676 -3.37253 -3.37253
-0.598676 -3.41933 -3.41933
-0.606865 -3.51362 -3.51362
-0.446381 -3.51385 -3.51385
-0.440027 -3.41947 -3.41947
-0.602772 -3.46634 -3.46634
-0.526583 -3.51362 -3.51362
-0.443203 -3.46652 -3.46652
-0.519312 -3.41928 -3.41928
-0.522948 -3.46631 -3.46631
-0.606865 -3.51362 -3.51362
-0.615044 -3.60898 -3.60898
-0.452738 -3.6093 -3.6093
-0.446381 -3.51385 -3.51385
-0.610956 -3.56117 -3.56117
-0.533852 -3.60903 -3.60903
-0.449559 -3.56144 -3.56144
-0.526583 -3.51362 -3.51362
-0.530218 -3.56119 -3.56119
-0.615044 -3.60898 -3.60898
-0.623214 -3.70543 -3.70543
-0.459101 -3.70584 -3.70584
-0.452738 -3.6093 -3.6093
-0.61913 -3.65707 -3.65707
-0.541118 -3.70552 -3.70552
-0.455919 -3.65744 -3.65744
-0.533852 -3.60903 -3.60903
-0.537485 -3.65714 -3.65714
-0.623214 -3.70543 -3.70543
-0.631374 -3.80293 -3.80293
-0.465468 -3.80343 -3.80343
-0.459101 -3.70584 -3.70584
-0.627295 -3.75405 -3.75405
-0.548382 -3.80307 -3.80307
-0.462284 -3.7545 -3.7545
-0.541118 -3.70552 -3.70552
-0.54475 -3.75416 -3.75416
-0.631374 -3.80293 -3.80293
-0.639525 -3.90149 -3.90149
-0.471841 -3.90209 -3.90209
-0.465468 -3.80343 -3.80343
-0.635451 -3.85208 -3.85208
-0.555643 -3.90168 -3.90168
-0.468654 -3.85263 -3.85263
-0.548382 -3.80307 -3.80307
-0.552013 -3.85224 -3.85224
-0.639525 -3.90149 -3.90149
-0.647667 -4.0011 -4.0011
-0.478219 -4.00179 -4.00179
-0.471841 -3.90209 -3.90209
-0.643597 -3.95117 -3.95117
-0.562903 -4.00134 -4.00134
-0.475029 -3.95181 -3.95181
-0.555643 -3.90168 -3.90168
-0.559273 -3.95138 -3.95138
-0.647667 -4.0011 -4.0011
-0.655799 -4.10176 -4.10176
-0.484601 -4.10253 -4.10253
-0.478219 -4.00179 -4.00179
-0.651734 -4.0513 -4.0513
-0.570161 -4.10203 -4.10203
-0.481409 -4.05203 -4.05203
-0.562903 -4.00134 -4.00134
-0.566532 -4.05155 -4.05155
-0.655799 -4.10176 -4.10176
-0.663922 -4.20344 -4.20344
-0.49099 -4.2043 -4.2043
-0.484601 -4.10253 -4.10253
-0.659862 -4.15247 -4.15247
-0.577416 -4.20376 -4.20376
-0.487795 -4.15329 -4.15329
-0.570161 -4.10203 -4.10203
-0.573789 -4.15277 -4.15277
-0.663922 -4.20344 -4.20344