<?xml version="1.0"?>
<VTKFile type="UnstructuredGrid">
  <UnstructuredGrid>
  <Piece NumberOfPoints="12411"  NumberOfCells="1379">
    <Points>
      <DataArray type="Float64" NumberOfComponents="3" format="ascii">
0 0 0
2.53268 -0.00268525 0
2.53486 4.28481 0
0 4.28571 0
1.2661 -0.00167438 0
2.53401 2.14123 0
1.26748 4.28539 0
0 2.14286 0
1.2671 2.14214 0
2.53268 -0.00268525 0
5.0661 -0.00466244 0
5.06945 4.2831 0
2.53486 4.28481 0
3.79938 -0.00363649 0
5.06786 2.13932 0
3.80217 4.28403 0
2.53401 2.14123 0
3.80092 2.14031 0
5.0661 -0.00466244 0
7.59946 -0.00704796 0
7.60402 4.28074 0
5.06945 4.2831 0
6.33279 -0.00578527 0
7.60176 2.13693 0
6.33673 4.282 0
5.06786 2.13932 0
6.33481 2.1382 0
7.59946 -0.00704796 0
10.1328 -0.0101182 0
10.1386 4.27768 0
7.60402 4.28074 0
8.86613 -0.00849027 0
10.1357 2.13386 0
8.8713 4.2793 0
7.60176 2.13693 0
8.86873 2.13548 0
10.1328 -0.0101182 0
12.6661 -0.0139365 0
12.6732 4.27385 0
10.1386 4.27768 0
11.3994 -0.0119312 0
12.6697 2.13004 0
11.4059 4.27586 0
10.1357 2.13386 0
11.4027 2.13205 0
12.6661 -0.0139365 0
15.1994 -0.0185458 0
15.2078 4.26923 0
12.6732 4.27385 0
13.9327 -0.0161413 0
15.2036 2.12543 0
13.9405 4.27164 0
12.6697 2.13004 0
13.9366 2.12783 0
15.1994 -0.0185458 0
17.7327 -0.0239518 0
17.7425 4.26381 0
15.2078 4.26923 0
16.4661 -0.0211489 0
17.7376 2.12002 0
16.4752 4.26662 0
15.2036 2.12543 0
16.4706 2.12282 0
17.7327 -0.0239518 0
20.266 -0.0301598 0
20.2772 4.25759 0
17.7425 4.26381 0
18.9994 -0.0269556 0
20.2716 2.1138 0
19.0098 4.2608 0
17.7376 2.12002 0
19.0046 2.11701 0
20.266 -0.0301598 0
22.7994 -0.0371667 0
22.8118 4.25057 0
20.2772 4.25759 0
21.5327 -0.0335636 0
22.8056 2.10679 0
21.5445 4.25418 0
20.2716 2.1138 0
21.5386 2.11039 0
22.7994 -0.0371667 0
25.3327 -0.0449697 0
25.3465 4.24275 0
22.8118 4.25057 0
24.0661 -0.0409689 0
25.3397 2.09898 0
24.0792 4.24676 0
22.8056 2.10679 0
24.0726 2.10298 0
25.3327 -0.0449697 0
27.8661 -0.0535641 0
27.8813 4.23414 0
25.3465 4.24275 0
26.5994 -0.0491682 0
27.8737 2.09037 0
26.6139 4.23855 0
25.3397 2.09898 0
26.6067 2.09477 0
27.8661 -0.0535641 0
30.3995 -0.0629459 0
30.416 4.22475 0
27.8813 4.23414 0
29.1328 -0.0581569 0
30.4078 2.08098 0
29.1486 4.22954 0
27.8737 2.09037 0
29.1407 2.08578 0
30.3995 -0.0629459 0
32.9329 -0.0731107 0
32.9507 4.21457 0
30.416 4.22475 0
31.6662 -0.0679307 0
32.9419 2.07081 0
31.6834 4.21975 0
30.4078 2.08098 0
31.6748 2.076 0
32.9329 -0.0731107 0
35.4664 -0.084054 0
35.4855 4.20361 0
32.9507 4.21457 0
34.1997 -0.0784853 0
35.476 2.05986 0
34.2181 4.20918 0
32.9419 2.07081 0
34.2089 2.06543 0
35.4664 -0.084054 0
37.9999 -0.0957715 0
38.0203 4.19187 0
35.4855 4.20361 0
36.7331 -0.0898162 0
38.0101 2.04813 0
36.7529 4.19784 0
35.476 2.05986 0
36.743 2.05409 0
37.9999 -0.0957715 0
40.5334 -0.108259 0
40.5551 4.17937 0
38.0203 4.19187 0
39.2666 -0.101919 0
40.5442 2.03564 0
39.2877 4.18572 0
38.0101 2.04813 0
39.2772 2.04198 0
40.5334 -0.108259 0
43.0669 -0.121512 0
43.0899 4.1661 0
40.5551 4.17937 0
41.8001 -0.11479 0
43.0784 2.02237 0
41.8225 4.17283 0
40.5442 2.03564 0
41.8113 2.0291 0
43.0669 -0.121512 0
45.6004 -0.135527 0
45.6247 4.15206 0
43.0899 4.1661 0
44.3336 -0.128425 0
45.6126 2.00835 0
44.3573 4.15917 0
43.0784 2.02237 0
44.3455 2.01546 0
45.6004 -0.135527 0
48.134 -0.150299 0
48.1595 4.13727 0
45.6247 4.15206 0
46.8672 -0.142819 0
48.1468 1.99357 0
46.8921 4.14476 0
45.6126 2.00835 0
46.8797 2.00105 0
48.134 -0.150299 0
50.6675 -0.165825 0
50.6944 4.12173 0
48.1595 4.13727 0
49.4007 -0.157968 0
50.681 1.97803 0
49.4269 4.12959 0
48.1468 1.99357 0
49.4139 1.98589 0
50.6675 -0.165825 0
53.2011 -0.182099 0
53.2292 4.10544 0
50.6944 4.12173 0
51.9343 -0.173868 0
53.2152 1.96175 0
51.9618 4.11368 0
50.681 1.97803 0
51.9481 1.96998 0
53.2011 -0.182099 0
55.7347 -0.199118 0
55.7641 4.0884 0
53.2292 4.10544 0
54.4679 -0.190515 0
55.7494 1.94472 0
54.4967 4.09701 0
53.2152 1.96175 0
54.4823 1.95333 0
55.7347 -0.199118 0
58.2684 -0.216877 0
58.299 4.07062 0
55.7641 4.0884 0
57.0016 -0.207905 0
58.2837 1.92695 0
57.0315 4.0796 0
55.7494 1.94472 0
57.0166 1.93593 0
58.2684 -0.216877 0
60.802 -0.235372 0
60.8339 4.0521 0
58.299 4.07062 0
59.5352 -0.226033 0
60.818 1.90844 0
59.5664 4.06145 0
58.2837 1.92695 0
59.5508 1.91779 0
60.802 -0.235372 0
63.3357 -0.254599 0
63.3688 4.03286 0
60.8339 4.0521 0
62.0689 -0.244895 0
63.3523 1.88921 0
62.1013 4.04257 0
60.818 1.90844 0
62.0851 1.89892 0
63.3357 -0.254599 0
65.8694 -0.274555 0
65.9037 4.01288 0
63.3688 4.03286 0
64.6025 -0.264486 0
65.8866 1.86924 0
64.6362 4.02296 0
63.3523 1.88921 0
64.6194 1.87931 0
65.8694 -0.274555 0
68.4031 -0.295233 0
68.4386 3.99218 0
65.9037 4.01288 0
67.1363 -0.284804 0
68.4209 1.84855 0
67.1712 4.00262 0
65.8866 1.86924 0
67.1537 1.85899 0
68.4031 -0.295233 0
70.9368 -0.316631 0
70.9736 3.97076 0
68.4386 3.99218 0
69.67 -0.305843 0
70.9552 1.82714 0
69.7061 3.98156 0
68.4209 1.84855 0
69.6881 1.83794 0
70.9368 -0.316631 0
73.4706 -0.338744 0
73.5085 3.94863 0
70.9736 3.97076 0
72.2037 -0.327599 0
73.4896 1.80502 0
72.2411 3.95978 0
70.9552 1.82714 0
72.2224 1.81617 0
73.4706 -0.338744 0
76.0044 -0.361568 0
76.0435 3.92578 0
73.5085 3.94863 0
74.7375 -0.350068 0
76.024 1.78218 0
74.776 3.93729 0
73.4896 1.80502 0
74.7568 1.79369 0
76.0044 -0.361568 0
78.5382 -0.385099 0
78.5785 3.90223 0
76.0435 3.92578 0
77.2713 -0.373246 0
78.5583 1.75864 0
77.311 3.91409 0
76.024 1.78218 0
77.2911 1.7705 0
78.5382 -0.385099 0
81.072 -0.409332 0
81.1135 3.87797 0
78.5785 3.90223 0
79.8051 -0.397128 0
81.0927 1.7344 0
79.846 3.89019 0
78.5583 1.75864 0
79.8255 1.74661 0
81.072 -0.409332 0
83.6058 -0.434264 0
83.6485 3.85302 0
81.1135 3.87797 0
82.3389 -0.421711 0
83.6272 1.70945 0
82.381 3.86558 0
81.0927 1.7344 0
82.3599 1.72201 0
83.6058 -0.434264 0
86.1396 -0.459889 0
86.1835 3.82737 0
83.6485 3.85302 0
84.8727 -0.44699 0
86.1616 1.68382 0
84.916 3.84028 0
83.6272 1.70945 0
84.8944 1.69672 0
86.1396 -0.459889 0
88.6735 -0.486204 0
88.7185 3.80103 0
86.1835 3.82737 0
87.4066 -0.472961 0
88.696 1.65749 0
87.451 3.81429 0
86.1616 1.68382 0
87.4288 1.67074 0
88.6735 -0.486204 0
91.2074 -0.513205 0
91.2536 3.77401 0
88.7185 3.80103 0
89.9404 -0.499619 0
91.2305 1.63048 0
89.986 3.78761 0
88.696 1.65749 0
89.9633 1.64407 0
91.2074 -0.513205 0
93.7413 -0.540887 0
93.7886 3.7463 0
91.2536 3.77401 0
92.4743 -0.526961 0
93.765 1.60278 0
92.5211 3.76024 0
91.2305 1.63048 0
92.4977 1.61671 0
93.7413 -0.540887 0
96.2752 -0.569246 0
96.3237 3.71792 0
93.7886 3.7463 0
95.0082 -0.554982 0
96.2994 1.57441 0
95.0561 3.7322 0
93.765 1.60278 0
95.0322 1.58868 0
96.2752 -0.569246 0
98.8091 -0.598279 0
98.8587 3.68887 0
96.3237 3.71792 0
97.5422 -0.583679 0
98.8339 1.54536 0
97.5912 3.70348 0
96.2994 1.57441 0
97.5667 1.55997 0
98.8091 -0.598279 0
101.343 -0.62798 0
101.394 3.65914 0
98.8587 3.68887 0
100.076 -0.613046 0
101.368 1.51565 0
100.126 3.67409 0
98.8339 1.54536 0
100.101 1.53059 0
101.343 -0.62798 0
103.877 -0.658345 0
103.929 3.62875 0
101.394 3.65914 0
102.61 -0.643079 0
103.903 1.48527 0
102.661 3.64403 0
101.368 1.51565 0
102.636 1.50055 0
103.877 -0.658345 0
106.411 -0.689371 0
106.464 3.5977 0
103.929 3.62875 0
105.144 -0.673775 0
106.438 1.45424 0
105.196 3.61331 0
103.903 1.48527 0
105.17 1.46984 0
106.411 -0.689371 0
108.945 -0.721052 0
108.999 3.56599 0
106.464 3.5977 0
107.678 -0.70513 0
108.972 1.42254 0
107.732 3.58193 0
106.438 1.45424 0
107.705 1.43847 0
108.945 -0.721052 0
111.479 -0.753386 0
111.534 3.53364 0
108.999 3.56599 0
110.212 -0.737138 0
111.507 1.39019 0
110.267 3.5499 0
108.972 1.42254 0
110.239 1.40645 0
111.479 -0.753386 0
114.013 -0.786367 0
114.069 3.50063 0
111.534 3.53364 0
112.746 -0.769795 0
114.041 1.3572 0
112.802 3.51721 0
111.507 1.39019 0
112.774 1.37378 0
114.013 -0.786367 0
116.547 -0.819991 0
116.604 3.46698 0
114.069 3.50063 0
115.28 -0.803099 0
116.576 1.32356 0
115.337 3.48389 0
114.041 1.3572 0
115.309 1.34046 0
116.547 -0.819991 0
119.081 -0.854255 0
119.14 3.43269 0
116.604 3.46698 0
117.814 -0.837043 0
119.11 1.28929 0
117.872 3.44992 0
116.576 1.32356 0
117.843 1.3065 0
119.081 -0.854255 0
121.615 -0.889153 0
121.675 3.39777 0
119.14 3.43269 0
120.348 -0.871625 0
121.645 1.25437 0
120.407 3.41531 0
119.11 1.28929 0
120.378 1.27191 0
121.615 -0.889153 0
124.149 -0.924682 0
124.21 3.36221 0
121.675 3.39777 0
122.882 -0.906839 0
124.18 1.21883 0
122.942 3.38007 0
121.645 1.25437 0
122.912 1.23668 0
124.149 -0.924682 0
126.684 -0.960838 0
126.745 3.32603 0
124.21 3.36221 0
125.416 -0.942682 0
126.714 1.18266 0
125.478 3.3442 0
124.18 1.21883 0
125.447 1.20083 0
126.684 -0.960838 0
129.218 -0.997616 0
129.28 3.28923 0
126.745 3.32603 0
127.951 -0.97915 0
129.249 1.14587 0
128.013 3.30771 0
126.714 1.18266 0
127.982 1.16434 0
129.218 -0.997616 0
131.752 -1.03501 0
131.815 3.2518 0
129.28 3.28923 0
130.485 -1.01624 0
131.784 1.10846 0
130.548 3.27059 0
129.249 1.14587 0
130.516 1.12724 0
131.752 -1.03501 0
134.286 -1.07302 0
134.351 3.21377 0
131.815 3.2518 0
133.019 -1.05394 0
134.318 1.07044 0
133.083 3.23286 0
131.784 1.10846 0
133.051 1.08953 0
134.286 -1.07302 0
136.82 -1.11164 0
136.886 3.17512 0
134.351 3.21377 0
135.553 -1.09226 0
136.853 1.0318 0
135.618 3.19452 0
134.318 1.07044 0
135.586 1.0512 0
136.82 -1.11164 0
139.354 -1.15087 0
139.421 3.13587 0
136.886 3.17512 0
138.087 -1.13118 0
139.388 0.992566 0
138.154 3.15557 0
136.853 1.0318 0
138.12 1.01226 0
139.354 -1.15087 0
141.889 -1.19069 0
141.956 3.09602 0
139.421 3.13587 0
140.621 -1.1707 0
141.922 0.952727 0
140.689 3.11602 0
139.388 0.992566 0
140.655 0.972721 0
141.889 -1.19069 0
144.423 -1.23112 0
144.492 3.05557 0
141.956 3.09602 0
143.156 -1.21083 0
144.457 0.91229 0
143.224 3.07587 0
141.922 0.952727 0
143.19 0.932583 0
144.423 -1.23112 0
146.957 -1.27213 0
147.027 3.01453 0
144.492 3.05557 0
145.69 -1.25155 0
146.992 0.87126 0
145.759 3.03512 0
144.457 0.91229 0
145.725 0.891849 0
146.957 -1.27213 0
149.491 -1.31373 0
149.562 2.97289 0
147.027 3.01453 0
148.224 -1.29286 0
149.527 0.829642 0
[...]
    <PointData>
      <DataArray type="Float64" NumberOfComponents="3" Name="Displacement" format="ascii">
0 0 0
-0.00538615 -0.00268525 -0.00268525
-0.00321145 -0.000906674 -0.000906674
0 0 0
-0.00293097 -0.00167438 -0.00167438
-0.0040567 -0.00162271 -0.00162271
-0.0015583 -0.000324794 -0.000324794
0 0 0
-0.00193467 -0.000715351 -0.000715351
-0.00538615 -0.00268525 -0.00268525
-0.0100466 -0.00466244 -0.00466244
-0.00668894 -0.0026185 -0.0026185
-0.00321145 -0.000906674 -0.000906674
-0.00772311 -0.00363649 -0.00363649
-0.00828334 -0.00353689 -0.00353689
-0.00493365 -0.0016799 -0.0016799
-0.0040567 -0.00162271 -0.00162271
-0.00618195 -0.00255101 -0.00255101
-0.0100466 -0.00466244 -0.00466244
-0.0147486 -0.00704796 -0.00704796
-0.0101979 -0.00497074 -0.00497074
-0.00668894 -0.0026185 -0.0026185
-0.0123892 -0.00578527 -0.00578527
-0.0124483 -0.00593085 -0.00593085
-0.00844547 -0.0037118 -0.0037118
-0.00828334 -0.00353689 -0.00353689
-0.0103712 -0.00465582 -0.00465582
-0.0147486 -0.00704796 -0.00704796
-0.0194895 -0.0101182 -0.0101182
-0.0136895 -0.00803484 -0.00803484
-0.0101979 -0.00497074 -0.00497074
-0.0171155 -0.00849027 -0.00849027
-0.0165779 -0.00899445 -0.00899445
-0.0119467 -0.00640963 -0.00640963
-0.0124483 -0.00593085 -0.00593085
-0.014516 -0.00737261 -0.00737261
-0.0194895 -0.0101182 -0.0101182
-0.0242561 -0.0139365 -0.0139365
-0.0171521 -0.0118616 -0.0118616
-0.0136895 -0.00803484 -0.00803484
-0.0218709 -0.0119312 -0.0119312
-0.0206939 -0.0128177 -0.0128177
-0.0154242 -0.00985072 -0.00985072
-0.0165779 -0.00899445 -0.00899445
-0.0186373 -0.0108083 -0.0108083
-0.0242561 -0.0139365 -0.0139365
-0.029025 -0.0185458 -0.0185458
-0.0205927 -0.0164804 -0.0164804
-0.0171521 -0.0118616 -0.0118616
-0.0266411 -0.0161413 -0.0161413
-0.0247968 -0.0174292 -0.0174292
-0.0188749 -0.0140711 -0.0140711
-0.0206939 -0.0128177 -0.0128177
-0.0227471 -0.015024 -0.015024
-0.029025 -0.0185458 -0.0185458
-0.0337881 -0.0239518 -0.0239518
-0.0240128 -0.0218994 -0.0218994
-0.0205927 -0.0164804 -0.0164804
-0.0314078 -0.0211489 -0.0211489
-0.0288865 -0.0228413 -0.0228413
-0.0223052 -0.0190896 -0.0190896
-0.0247968 -0.0174292 -0.0174292
-0.0268435 -0.0200349 -0.0200349
-0.0337881 -0.0239518 -0.0239518
-0.0385366 -0.0301598 -0.0301598
-0.0274154 -0.0281208 -0.0281208
-0.0240128 -0.0218994 -0.0218994
-0.0361645 -0.0269556 -0.0269556
-0.0329605 -0.0290554 -0.0290554
-0.0257163 -0.0249099 -0.0249099
-0.0288865 -0.0228413 -0.0228413
-0.0309256 -0.0258482 -0.0258482
-0.0385366 -0.0301598 -0.0301598
-0.0432672 -0.0371667 -0.0371667
-0.0308013 -0.0351422 -0.0351422
-0.0274154 -0.0281208 -0.0281208
-0.0409044 -0.0335636 -0.0335636
-0.0370177 -0.0360696 -0.0360696
-0.0291104 -0.0315317 -0.0315317
-0.0329605 -0.0290554 -0.0290554
-0.0349913 -0.0324627 -0.0324627
-0.0432672 -0.0371667 -0.0371667
-0.0479774 -0.0449697 -0.0449697
-0.0341712 -0.04296 -0.04296
-0.0308013 -0.0351422 -0.0351422
-0.045625 -0.0409689 -0.0409689
-0.0410571 -0.0438801 -0.0438801
-0.0324882 -0.0389518 -0.0389518
-0.0370177 -0.0360696 -0.0360696
-0.0390397 -0.0398756 -0.0398756
-0.0479774 -0.0449697 -0.0449697
-0.0526662 -0.0535641 -0.0535641
-0.0375256 -0.0515699 -0.0515699
-0.0341712 -0.04296 -0.04296
-0.0503245 -0.0491682 -0.0491682
-0.0450783 -0.0524827 -0.0524827
-0.0358503 -0.0471662 -0.0471662
-0.0410571 -0.0438801 -0.0438801
-0.04307 -0.0480827 -0.0480827
-0.0526662 -0.0535641 -0.0535641
-0.0573331 -0.0629459 -0.0629459
-0.0408648 -0.0609675 -0.0609675
-0.0375256 -0.0515699 -0.0515699
-0.0550024 -0.0581569 -0.0581569
-0.0490812 -0.0618728 -0.0618728
-0.0391971 -0.0561705 -0.0561705
-0.0450783 -0.0524827 -0.0524827
-0.047082 -0.0570795 -0.0570795
-0.0573331 -0.0629459 -0.0629459
-0.0619781 -0.0731107 -0.0731107
-0.044189 -0.0711484 -0.0711484
-0.0408648 -0.0609675 -0.0609675
-0.0596583 -0.0679307 -0.0679307
-0.0530657 -0.072046 -0.072046
-0.0425288 -0.0659603 -0.0659603
-0.0490812 -0.0618728 -0.0618728
-0.0510757 -0.0668618 -0.0668618
-0.0619781 -0.0731107 -0.0731107
-0.0666013 -0.084054 -0.084054
-0.0474986 -0.0821083 -0.0821083
-0.044189 -0.0711484 -0.0711484
-0.0642924 -0.0784853 -0.0784853
-0.057032 -0.082998 -0.082998
-0.0458456 -0.0765312 -0.0765312
-0.0530657 -0.072046 -0.072046
-0.0550511 -0.0774249 -0.0774249
-0.0666013 -0.084054 -0.084054
-0.0712028 -0.0957715 -0.0957715
-0.0507937 -0.0938427 -0.0938427
-0.0474986 -0.0821083 -0.0821083
-0.0689047 -0.0898162 -0.0898162
-0.0609802 -0.0947245 -0.0947245
-0.0491479 -0.0878789 -0.0878789
-0.057032 -0.082998 -0.082998
-0.0590083 -0.0887647 -0.0887647
-0.0712028 -0.0957715 -0.0957715
-0.0757829 -0.108259 -0.108259
-0.0540745 -0.106348 -0.106348
-0.0507937 -0.0938427 -0.0938427
-0.0734955 -0.101919 -0.101919
-0.0649106 -0.107221 -0.107221
-0.0524358 -0.0999991 -0.0999991
-0.0609802 -0.0947245 -0.0947245
-0.0629476 -0.100877 -0.100877
-0.0757829 -0.108259 -0.108259
-0.0803417 -0.121512 -0.121512
-0.0573412 -0.119619 -0.119619
-0.0540745 -0.106348 -0.106348
-0.0780649 -0.11479 -0.11479
-0.0688234 -0.120484 -0.120484
-0.0557096 -0.112888 -0.112888
-0.0649106 -0.107221 -0.107221
-0.0668692 -0.113757 -0.113757
-0.0803417 -0.121512 -0.121512
-0.0848795 -0.135527 -0.135527
-0.0605941 -0.133651 -0.133651
-0.0573412 -0.119619 -0.119619
-0.0826132 -0.128425 -0.128425
-0.0727187 -0.134508 -0.134508
-0.0589694 -0.12654 -0.12654
-0.0688234 -0.120484 -0.120484
-0.0707732 -0.127401 -0.127401
-0.0848795 -0.135527 -0.135527
-0.0893965 -0.150299 -0.150299
-0.0638334 -0.148442 -0.148442
-0.0605941 -0.133651 -0.133651
-0.0871406 -0.142819 -0.142819
-0.0765968 -0.14929 -0.14929
-0.0622155 -0.140952 -0.140952
-0.0727187 -0.134508 -0.134508
-0.0746599 -0.141805 -0.141805
-0.0893965 -0.150299 -0.150299
-0.0938929 -0.165825 -0.165825
-0.0670592 -0.163986 -0.163986
-0.0638334 -0.148442 -0.148442
-0.0916472 -0.157968 -0.157968
-0.0804579 -0.164825 -0.164825
-0.065448 -0.15612 -0.15612
-0.0765968 -0.14929 -0.14929
-0.0785295 -0.156963 -0.156963
-0.0938929 -0.165825 -0.165825
-0.0983688 -0.182099 -0.182099
-0.0702718 -0.180279 -0.180279
-0.0670592 -0.163986 -0.163986
-0.0961334 -0.173868 -0.173868
-0.0843022 -0.181109 -0.181109
-0.0686672 -0.172039 -0.172039
-0.0804579 -0.164825 -0.164825
-0.0823821 -0.172874 -0.172874
-0.0983688 -0.182099 -0.182099
-0.102825 -0.199118 -0.199118
-0.0734714 -0.197317 -0.197317
-0.0702718 -0.180279 -0.180279
-0.100599 -0.190515 -0.190515
-0.0881298 -0.198138 -0.198138
-0.0718732 -0.188705 -0.188705
-0.0843022 -0.181109 -0.181109
-0.0862181 -0.18953 -0.18953
-0.102825 -0.199118 -0.199118
-0.10726 -0.216877 -0.216877
-0.0766581 -0.215095 -0.215095
-0.0734714 -0.197317 -0.197317
-0.105045 -0.207905 -0.207905
-0.091941 -0.215907 -0.215907
-0.0750663 -0.206114 -0.206114
-0.0881298 -0.198138 -0.198138
-0.0900374 -0.20693 -0.20693
-0.10726 -0.216877 -0.216877
-0.111676 -0.235372 -0.235372
-0.0798321 -0.233611 -0.233611
-0.0766581 -0.215095 -0.215095
-0.109471 -0.226033 -0.226033
-0.0957359 -0.234413 -0.234413
-0.0782466 -0.224261 -0.224261
-0.091941 -0.215907 -0.215907
-0.0938405 -0.225068 -0.225068
-0.111676 -0.235372 -0.235372
-0.116072 -0.254599 -0.254599
-0.0829936 -0.252858 -0.252858
-0.0798321 -0.233611 -0.233611
-0.113877 -0.244895 -0.244895
-0.0995148 -0.253651 -0.253651
-0.0814144 -0.243143 -0.243143
-0.0957359 -0.234413 -0.234413
-0.0976273 -0.243941 -0.243941
-0.116072 -0.254599 -0.254599
-0.120449 -0.274555 -0.274555
-0.0861428 -0.272834 -0.272834
-0.0829936 -0.252858 -0.252858
-0.118263 -0.264486 -0.264486
-0.103278 -0.273617 -0.273617
-0.0845697 -0.262755 -0.262755
-0.0995148 -0.253651 -0.253651
-0.101398 -0.263543 -0.263543
-0.120449 -0.274555 -0.274555
-0.124807 -0.295233 -0.295233
-0.0892799 -0.293533 -0.293533
-0.0861428 -0.272834 -0.272834
-0.12263 -0.284804 -0.284804
-0.107025 -0.294306 -0.294306
-0.0877128 -0.283094 -0.283094
-0.103278 -0.273617 -0.273617
-0.105153 -0.283871 -0.283871
-0.124807 -0.295233 -0.295233
-0.129145 -0.316631 -0.316631
-0.092405 -0.314953 -0.314953
-0.0892799 -0.293533 -0.293533
-0.126978 -0.305843 -0.305843
-0.110757 -0.315715 -0.315715
-0.0908439 -0.304153 -0.304153
-0.107025 -0.294306 -0.294306
-0.108893 -0.304921 -0.304921
-0.129145 -0.316631 -0.316631
-0.133464 -0.338744 -0.338744
-0.0955183 -0.337087 -0.337087
-0.092405 -0.314953 -0.314953
-0.131307 -0.327599 -0.327599
-0.114473 -0.33784 -0.33784
-0.0939631 -0.325931 -0.325931
-0.110757 -0.315715 -0.315715
-0.112617 -0.326688 -0.326688
-0.133464 -0.338744 -0.338744
-0.137765 -0.361568 -0.361568
-0.09862 -0.359933 -0.359933
-0.0955183 -0.337087 -0.337087
-0.135617 -0.350068 -0.350068
-0.118174 -0.360675 -0.360675
-0.0970706 -0.348421 -0.348421
-0.114473 -0.33784 -0.33784
-0.116325 -0.349169 -0.349169
-0.137765 -0.361568 -0.361568
-0.142047 -0.385099 -0.385099
-0.10171 -0.383485 -0.383485
-0.09862 -0.359933 -0.359933
-0.139908 -0.373246 -0.373246
-0.12186 -0.384217 -0.384217
-0.100166 -0.371621 -0.371621
-0.118174 -0.360675 -0.360675
-0.120019 -0.372358 -0.372358
-0.142047 -0.385099 -0.385099
-0.14631 -0.409332 -0.409332
-0.104789 -0.407741 -0.407741
-0.10171 -0.383485 -0.383485
-0.144181 -0.397128 -0.397128
-0.125531 -0.408462 -0.408462
-0.103251 -0.395525 -0.395525
-0.12186 -0.384217 -0.384217
-0.123697 -0.396252 -0.396252
-0.14631 -0.409332 -0.409332
-0.150555 -0.434264 -0.434264
-0.107857 -0.432695 -0.432695
-0.104789 -0.407741 -0.407741
-0.148435 -0.421711 -0.421711
-0.129188 -0.433405 -0.433405
-0.106324 -0.420131 -0.420131
-0.125531 -0.408462 -0.408462
-0.127361 -0.420846 -0.420846
-0.150555 -0.434264 -0.434264
-0.154782 -0.459889 -0.459889
-0.110913 -0.458343 -0.458343
-0.107857 -0.432695 -0.432695
-0.152671 -0.44699 -0.44699
-0.132829 -0.459042 -0.459042
-0.109387 -0.445432 -0.445432
-0.129188 -0.433405 -0.433405
-0.13101 -0.446137 -0.446137
-0.154782 -0.459889 -0.459889
-0.158991 -0.486204 -0.486204
-0.113959 -0.484681 -0.484681
-0.110913 -0.458343 -0.458343
-0.156889 -0.472961 -0.472961
-0.136457 -0.485369 -0.485369
-0.112438 -0.471426 -0.471426
-0.132829 -0.459042 -0.459042
-0.134645 -0.47212 -0.47212
-0.158991 -0.486204 -0.486204
-0.163182 -0.513205 -0.513205
-0.116994 -0.511705 -0.511705
-0.113959 -0.484681 -0.484681
-0.161088 -0.499619 -0.499619
-0.14007 -0.512382 -0.512382
-0.115478 -0.498107 -0.498107
-0.136457 -0.485369 -0.485369
-0.138265 -0.49879 -0.49879
-0.163182 -0.513205 -0.513205
-0.167355 -0.540887 -0.540887
-0.120019 -0.53941 -0.53941
-0.116994 -0.511705 -0.511705
-0.16527 -0.526961 -0.526961
-0.143669 -0.540076 -0.540076
-0.118508 -0.525472 -0.525472
-0.14007 -0.512382 -0.512382
-0.141871 -0.526144 -0.526144
-0.167355 -0.540887 -0.540887
-0.17151 -0.569246 -0.569246
-0.123033 -0.567793 -0.567793
-0.120019 -0.53941 -0.53941
-0.169435 -0.554982 -0.554982
-0.147253 -0.568448 -0.568448
-0.121527 -0.553517 -0.553517
-0.143669 -0.540076 -0.540076
-0.145463 -0.554178 -0.554178
-0.17151 -0.569246 -0.569246
-0.175649 -0.598279 -0.598279
-0.126037 -0.596849 -0.596849
-0.123033 -0.567793 -0.567793
-0.173582 -0.583679 -0.583679
-0.150824 -0.597492 -0.597492
-0.124536 -0.582237 -0.582237
-0.147253 -0.568448 -0.568448
-0.149041 -0.582886 -0.582886
-0.175649 -0.598279 -0.598279
-0.179769 -0.62798 -0.62798
-0.12903 -0.626574 -0.626574
-0.126037 -0.596849 -0.596849
-0.177711 -0.613046 -0.613046
-0.154381 -0.627206 -0.627206
-0.127535 -0.611628 -0.611628
-0.150824 -0.597492 -0.597492
-0.152605 -0.612266 -0.612266
-0.179769 -0.62798 -0.62798
-0.183873 -0.658345 -0.658345
-0.132014 -0.656964 -0.656964
-0.12903 -0.626574 -0.626574
-0.181823 -0.643079 -0.643079
-0.157925 -0.657584 -0.657584
-0.130523 -0.641686 -0.641686
-0.154381 -0.627206 -0.627206
-0.156155 -0.642312 -0.642312
-0.183873 -0.658345 -0.658345
-0.187959 -0.689371 -0.689371
-0.134988 -0.688014 -0.688014
-0.132014 -0.656964 -0.656964
-0.185918 -0.673775 -0.673775
-0.161455 -0.688622 -0.688622
-0.133502 -0.672406 -0.672406
-0.157925 -0.657584 -0.657584
-0.159692 -0.673021 -0.673021
-0.187959 -0.689371 -0.689371
-0.192029 -0.721052 -0.721052
-0.137951 -0.71972 -0.71972
-0.134988 -0.688014 -0.688014
-0.189996 -0.70513 -0.70513
-0.164972 -0.720316 -0.720316
-0.136471 -0.703785 -0.703785
-0.161455 -0.688622 -0.688622
-0.163215 -0.704387 -0.704387
-0.192029 -0.721052 -0.721052
-0.196081 -0.753386 -0.753386
-0.140905 -0.752078 -0.752078
-0.137951 -0.71972 -0.71972
-0.194057 -0.737138 -0.737138
-0.168475 -0.752663 -0.752663
-0.13943 -0.735818 -0.735818
-0.164972 -0.720316 -0.720316
-0.166725 -0.736408 -0.736408
-0.196081 -0.753386 -0.753386
-0.200117 -0.786367 -0.786367
-0.14385 -0.785085 -0.785085
-0.140905 -0.752078 -0.752078
-0.198101 -0.769795 -0.769795
-0.171965 -0.785657 -0.785657
-0.142379 -0.768501 -0.768501
-0.168475 -0.752663 -0.752663
-0.170222 -0.769079 -0.769079
-0.200117 -0.786367 -0.786367
-0.204136 -0.819991 -0.819991
-0.146785 -0.818734 -0.818734
-0.14385 -0.785085 -0.785085
-0.202129 -0.803099 -0.803099
-0.175442 -0.819294 -0.819294
-0.145319 -0.801829 -0.801829
-0.171965 -0.785657 -0.785657
-0.173705 -0.802395 -0.802395
-0.204136 -0.819991 -0.819991
-0.208139 -0.854255 -0.854255
-0.149711 -0.853023 -0.853023
-0.146785 -0.818734 -0.818734
-0.20614 -0.837043 -0.837043
-0.178906 -0.853571 -0.853571
-0.148249 -0.835799 -0.835799
-0.175442 -0.819294 -0.819294
-0.177176 -0.836353 -0.836353
-0.208139 -0.854255 -0.854255
-0.212125 -0.889153 -0.889153
-0.152627 -0.887947 -0.887947
-0.149711 -0.853023 -0.853023
-0.210134 -0.871625 -0.871625
-0.182357 -0.888483 -0.888483
-0.15117 -0.870406 -0.870406
-0.178906 -0.853571 -0.853571
-0.180633 -0.870948 -0.870948
-0.212125 -0.889153 -0.889153
-0.216095 -0.924682 -0.924682
-0.155534 -0.923502 -0.923502
-0.152627 -0.887947 -0.887947
-0.214112 -0.906839 -0.906839
-0.185796 -0.924025 -0.924025
-0.154082 -0.905646 -0.905646
-0.182357 -0.888483 -0.888483
-0.184078 -0.906176 -0.906176
-0.216095 -0.924682 -0.924682
-0.220048 -0.960838 -0.960838
-0.158432 -0.959684 -0.959684
-0.155534 -0.923502 -0.923502
-0.218074 -0.942682 -0.942682
-0.189222 -0.960195 -0.960195
-0.156984 -0.941515 -0.941515
-0.185796 -0.924025 -0.924025
-0.18751 -0.942032 -0.942032
-0.220048 -0.960838 -0.960838
-0.223986 -0.997616 -0.997616
-0.161321 -0.996488 -0.996488
-0.158432 -0.959684 -0.959684
-0.222019 -0.97915 -0.97915
-0.192635 -0.996986 -0.996986
-0.159878 -0.978008 -0.978008
-0.189222 -0.960195 -0.960195
-0.19093 -0.978513 -0.978513
-0.223986 -0.997616 -0.997616
-0.227907 -1.03501 -1.03501
-0.164202 -1.03391 -1.03391
-0.161321 -0.996488 -0.996488
-0.225949 -1.01624 -1.01624
-0.196036 -1.0344 -1.0344
-0.162763 -1.01512 -1.01512
-0.192635 -0.996986 -0.996986
-0.194337 -1.01561 -1.01561
-0.227907 -1.03501 -1.03501
-0.231813 -1.07302 -1.07302
-0.167073 -1.07195 -1.07195
-0.164202 -1.03391 -1.03391
-0.229862 -1.05394 -1.05394
-0.199424 -1.07242 -1.07242
-0.165639 -1.05285 -1.05285
-0.196036 -1.0344 -1.0344
-0.197732 -1.05333 -1.05333
-0.231813 -1.07302 -1.07302
-0.235702 -1.11164 -1.11164
-0.169936 -1.11059 -1.11059
-0.167073 -1.07195 -1.07195
-0.233759 -1.09226 -1.09226
-0.2028 -1.11105 -1.11105
-0.168506 -1.09119 -1.09119
-0.199424 -1.07242 -1.07242
-0.201114 -1.09166 -1.09166
-0.235702 -1.11164 -1.11164
-0.239576 -1.15087 -1.15087
-0.17279 -1.14984 -1.14984
-0.169936 -1.11059 -1.11059
-0.237641 -1.13118 -1.13118
-0.206164 -1.15029 -1.15029
-0.171364 -1.13014 -1.13014
-0.2028 -1.11105 -1.11105
-0.204484 -1.1306 -1.1306
-0.239576 -1.15087 -1.15087
-0.243434 -1.19069 -1.19069
-0.175636 -1.1897 -1.1897
-0.17279 -1.14984 -1.14984
-0.241507 -1.1707 -1.1707
-0.209516 -1.19013 -1.19013
-0.174214 -1.1697 -1.1697
-0.206164 -1.15029 -1.15029
-0.207842 -1.17014 -1.17014
-0.243434 -1.19069 -1.19069
-0.247276 -1.23112 -1.23112
-0.178473 -1.23015 -1.23015
-0.175636 -1.1897 -1.1897
-0.245357 -1.21083 -1.21083
-0.212856 -1.23057 -1.23057
-0.177055 -1.20985 -1.20985
-0.209516 -1.19013 -1.19013
-0.211188 -1.21027 -1.21027
-0.247276 -1.23112 -1.23112
-0.251103 -1.27213 -1.27213
-0.181301 -1.27119 -1.27119
-0.178473 -1.23015 -1.23015
-0.249192 -1.25155 -1.25155
-0.216184 -1.2716 -1.2716
-0.179888 -1.25059 -1.25059
-0.212856 -1.23057 -1.23057
-0.214521 -1.25101 -1.25101
-0.251103 -1.27213 -1.27213
-0.254915 -1.31373 -1.31373
-0.184122 -1.31282 -1.31282
-0.181301 -1.27119 -1.27119
-0.253011 -1.29286 -1.29286
-0.219499 -1.31322 -1.31322
-0.182713 -1.29193 -1.29193
-0.216184 -1.2716 -1.2716
-0.217843 -1.29233 -1.29233
-0.254915 -1.31373 -1.31373
-0.25871 -1.35592 -1.35592
-0.186934 -1.35504 -1.35504
-0.184122 -1.31282 -1.31282
-0.256814 -1.33476 -1.33476
-0.222803 -1.35542 -1.35542
-0.185529 -1.33386 -1.33386
-0.219499 -1.31322 -1.31322
-0.221153 -1.33424 -1.33424
-0.25871 -1.35592 -1.35592
-0.262491 -1.39869 -1.39869
-0.189738 -1.39783 -1.39783
-0.186934 -1.35504 -1.35504
-0.260603 -1.37724 -1.37724
-0.226096 -1.3982 -1.3982
-0.188337 -1.37636 -1.37636
-0.222803 -1.35542 -1.35542
-0.224451 -1.37674 -1.37674
-0.262491 -1.39869 -1.39869
-0.266256 -1.44204 -1.44204
-0.192533 -1.4412 -1.4412
-0.189738 -1.39783 -1.39783
-0.264375 -1.42029 -1.42029
-0.229376 -1.44156 -1.44156
-0.191136 -1.41945 -1.41945
-0.226096 -1.3982 -1.3982
-0.227737 -1.41981 -1.41981
-0.266256 -1.44204 -1.44204
-0.270006 -1.48595 -1.48595
-0.195321 -1.48515 -1.48515
-0.192533 -1.4412 -1.4412
-0.268133 -1.46392 -1.46392
-0.232645 -1.48549 -1.48549
-0.193928 -1.4631 -1.4631
-0.229376 -1.44156 -1.44156
-0.231012 -1.46345 -1.46345
-0.270006 -1.48595 -1.48595
-0.273741 -1.53043 -1.53043
-0.198101 -1.52966 -1.52966
-0.195321 -1.48515 -1.48515
-0.271875 -1.50812 -1.50812
-0.235902 -1.52999 -1.52999
-0.196712 -1.50733 -1.50733
-0.232645 -1.48549 -1.48549
-0.234275 -1.50767 -1.50767
-0.273741 -1.53043 -1.53043
-0.27746 -1.57548 -1.57548
-0.200872 -1.57473 -1.57473
-0.198101 -1.52966 -1.52966
-0.275602 -1.55289 -1.55289
-0.239148 -1.57505 -1.57505
-0.199487 -1.55212 -1.55212
-0.235902 -1.52999 -1.52999
-0.237526 -1.55245 -1.55245
-0.27746 -1.57548 -1.57548
-0.281165 -1.62109 -1.62109
-0.203636 -1.62036 -1.62036
-0.200872 -1.57473 -1.57473
-0.279314 -1.59821 -1.59821
-0.242382 -1.62067 -1.62067
-0.202255 -1.59748 -1.59748
-0.239148 -1.57505 -1.57505
-0.240766 -1.59779 -1.59779
-0.281165 -1.62109 -1.62109
-0.284854 -1.66725 -1.66725
-0.206392 -1.66655 -1.66655
-0.203636 -1.62036 -1.62036
-0.283011 -1.6441 -1.6441
-0.245604 -1.66684 -1.66684
-0.205015 -1.64339 -1.64339
-0.242382 -1.62067 -1.62067
-0.243994 -1.64368 -1.64368
-0.284854 -1.66725 -1.66725
-0.288529 -1.71396 -1.71396
-0.20914 -1.71329 -1.71329
-0.206392 -1.66655 -1.66655
-0.286693 -1.69053 -1.69053
-0.248815 -1.71357 -1.71357
-0.207767 -1.68985 -1.68985
-0.245604 -1.66684 -1.66684
-0.247211 -1.69013 -1.69013
-0.288529 -1.71396 -1.71396
-0.292188 -1.76121 -1.76121
-0.21188 -1.76058 -1.76058
-0.20914 -1.71329 -1.71329
-0.29036 -1.73752 -1.73752
-0.252015 -1.76084 -1.76084
-0.210511 -1.73686 -1.73686
-0.248815 -1.71357 -1.71357
-0.250417 -1.73713 -1.73713
-0.292188 -1.76121 -1.76121
-0.295833 -1.80901 -1.80901
-0.214612 -1.8084 -1.8084
-0.21188 -1.76058 -1.76058
-0.294012 -1.78505 -1.78505
-0.255204 -1.80865 -1.80865
-0.213247 -1.78442 -1.78442
-0.252015 -1.76084 -1.76084
-0.253611 -1.78468 -1.78468
-0.295833 -1.80901 -1.80901
-0.299462 -1.85735 -1.85735
-0.217337 -1.85677 -1.85677
-0.214612 -1.8084 -1.8084
-0.297649 -1.83311 -1.83311
-0.258381 -1.857 -1.857
-0.215975 -1.83252 -1.83252
-0.255204 -1.80865 -1.80865
-0.256794 -1.83276 -1.83276
-0.299462 -1.85735 -1.85735
-0.303077 -1.90622 -1.90622
-0.220054 -1.90567 -1.90567
-0.217337 -1.85677 -1.85677
-0.301271 -1.88172 -1.88172
-0.261547 -1.90589 -1.90589
-0.218696 -1.88115 -1.88115
-0.258381 -1.857 -1.857
-0.259965 -1.88138 -1.88138
-0.303077 -1.90622 -1.90622
-0.306677 -1.95562 -1.95562
-0.222763 -1.95509 -1.95509
-0.220054 -1.90567 -1.90567
-0.304879 -1.93085 -1.93085
-0.264701 -1.9553 -1.9553
-0.221409 -1.93031 -1.93031
-0.261547 -1.90589 -1.90589
-0.263125 -1.93053 -1.93053
-0.306677 -1.95562 -1.95562
-0.310262 -2.00554 -2.00554
-0.225465 -2.00505 -2.00505
-0.222763 -1.95509 -1.95509
-0.308471 -1.98052 -1.98052
-0.267845 -2.00524 -2.00524
-0.224115 -1.98 -1.98
-0.264701 -1.9553 -1.9553