<?xml version="1.0"?>
<VTKFile type="UnstructuredGrid">
  <UnstructuredGrid>
  <Piece NumberOfPoints="12411"  NumberOfCells="1379">
    <Points>
      <DataArray type="Float64" NumberOfComponents="3" format="ascii">
0 0 0
2.52884 -0.00459688 0
2.53256 4.28416 0
0 4.28571 0
1.26401 -0.0028678 0
2.53111 2.14008 0
1.26636 4.28516 0
0 2.14286 0
1.26572 2.14163 0
2.52884 -0.00459688 0
5.05892 -0.00797747 0
5.06467 4.28124 0
2.53256 4.28416 0
3.79387 -0.00622329 0
5.06194 2.13681 0
3.79865 4.28284 0
2.53111 2.14008 0
3.79651 2.13849 0
5.05892 -0.00797747 0
7.58893 -0.0120567 0
7.59672 4.27721 0
5.06467 4.28124 0
6.32394 -0.00989735 0
7.59287 2.13271 0
6.33069 4.27937 0
5.06194 2.13681 0
6.32739 2.13489 0
7.58893 -0.0120567 0
10.1189 -0.0173083 0
10.1288 4.27197 0
7.59672 4.27721 0
8.8539 -0.0145235 0
10.1239 2.12747 0
8.86276 4.27475 0
7.59287 2.13271 0
8.85836 2.13025 0
10.1189 -0.0173083 0
12.6488 -0.0238405 0
12.6609 4.26542 0
10.1288 4.27197 0
11.3838 -0.0204098 0
12.6549 2.12093 0
11.3949 4.26886 0
10.1239 2.12747 0
11.3894 2.12437 0
12.6488 -0.0238405 0
15.1786 -0.0317267 0
15.1931 4.25751 0
12.6609 4.26542 0
13.9137 -0.0276126 0
15.1859 2.11304 0
13.927 4.26164 0
12.6549 2.12093 0
13.9204 2.11715 0
15.1786 -0.0317267 0
17.7085 -0.0409766 0
17.7253 4.24824 0
15.1931 4.25751 0
16.4436 -0.0361807 0
17.7169 2.10378 0
16.4592 4.25305 0
15.1859 2.11304 0
16.4514 2.10858 0
17.7085 -0.0409766 0
20.2385 -0.0515992 0
20.2575 4.23759 0
17.7253 4.24824 0
18.9735 -0.0461164 0
20.248 2.09314 0
18.9914 4.24309 0
17.7169 2.10378 0
18.9825 2.09863 0
20.2385 -0.0515992 0
22.7684 -0.0635888 0
22.7898 4.22557 0
20.2575 4.23759 0
21.5034 -0.0574234 0
22.7791 2.08114 0
21.5237 4.23175 0
20.248 2.09314 0
21.5136 2.08731 0
22.7684 -0.0635888 0
25.2984 -0.0769407 0
25.3221 4.21219 0
22.7898 4.22557 0
24.0334 -0.0700949 0
25.3103 2.06777 0
24.0559 4.21905 0
22.7791 2.08114 0
24.0447 2.07462 0
25.2984 -0.0769407 0
27.8284 -0.0916472 0
27.8544 4.19745 0
25.3221 4.21219 0
26.5634 -0.0841251 0
27.8414 2.05305 0
26.5882 4.20499 0
25.3103 2.06777 0
26.5758 2.06058 0
27.8284 -0.0916472 0
30.3585 -0.107701 0
30.3867 4.18136 0
27.8544 4.19745 0
29.0934 -0.0995061 0
30.3726 2.03697 0
29.1205 4.18957 0
27.8414 2.05305 0
29.107 2.04518 0
30.3585 -0.107701 0
32.8885 -0.125094 0
32.919 4.16393 0
30.3867 4.18136 0
31.6235 -0.116231 0
32.9038 2.01956 0
31.6529 4.17282 0
30.3726 2.03697 0
31.6382 2.02844 0
32.8885 -0.125094 0
35.4187 -0.14382 0
35.4514 4.14517 0
32.919 4.16393 0
34.1536 -0.134291 0
35.4351 2.00082 0
34.1852 4.15472 0
32.9038 2.01956 0
34.1694 2.01036 0
35.4187 -0.14382 0
37.9488 -0.163871 0
37.9838 4.12509 0
35.4514 4.14517 0
36.6837 -0.153681 0
37.9663 1.98075 0
36.7176 4.13529 0
35.4351 2.00082 0
36.7007 1.99095 0
37.9488 -0.163871 0
40.479 -0.18524 0
40.5162 4.10368 0
37.9838 4.12509 0
39.2139 -0.174391 0
40.4976 1.95936 0
39.25 4.11455 0
37.9663 1.98075 0
39.232 1.97022 0
40.479 -0.18524 0
43.0092 -0.207918 0
43.0486 4.08096 0
40.5162 4.10368 0
41.7441 -0.196416 0
43.0289 1.93666 0
41.7824 4.09249 0
40.4976 1.95936 0
41.7633 1.94818 0
43.0092 -0.207918 0
45.5394 -0.2319 0
45.5811 4.05694 0
43.0486 4.08096 0
44.2743 -0.219747 0
45.5603 1.91266 0
44.3148 4.06911 0
43.0289 1.93666 0
44.2946 1.92482 0
45.5394 -0.2319 0
48.0697 -0.257178 0
48.1135 4.03162 0
45.5811 4.05694 0
46.8046 -0.244378 0
48.0917 1.88736 0
46.8473 4.04444 0
45.5603 1.91266 0
46.826 1.90017 0
48.0697 -0.257178 0
50.6 -0.283745 0
50.646 4.00501 0
48.1135 4.03162 0
49.3349 -0.270301 0
50.6231 1.86077 0
49.3798 4.01848 0
48.0917 1.88736 0
49.3574 1.87423 0
50.6 -0.283745 0
53.1304 -0.311594 0
53.1785 3.97712 0
50.646 4.00501 0
51.8652 -0.29751 0
53.1545 1.8329 0
51.9123 3.99123 0
50.6231 1.86077 0
51.8888 1.847 0
53.1304 -0.311594 0
55.6607 -0.340716 0
55.711 3.94796 0
53.1785 3.97712 0
54.3955 -0.325996 0
55.6859 1.80376 0
54.4448 3.9627 0
53.1545 1.8329 0
54.4202 1.81849 0
55.6607 -0.340716 0
58.1911 -0.371106 0
58.2436 3.91752 0
55.711 3.94796 0
56.9259 -0.355753 0
58.2174 1.77334 0
56.9773 3.9329 0
55.6859 1.80376 0
56.9516 1.78871 0
58.1911 -0.371106 0
60.7215 -0.402756 0
60.7761 3.88583 0
58.2436 3.91752 0
59.4563 -0.386774 0
60.7489 1.74167 0
59.5098 3.90183 0
58.2174 1.77334 0
59.4831 1.75767 0
60.7215 -0.402756 0
63.252 -0.435658 0
63.3087 3.85288 0
60.7761 3.88583 0
61.9868 -0.419051 0
63.2804 1.70875 0
62.0424 3.86951 0
60.7489 1.74167 0
62.0146 1.72536 0
63.252 -0.435658 0
65.7825 -0.469806 0
65.8413 3.81869 0
63.3087 3.85288 0
64.5172 -0.452577 0
65.8119 1.67457 0
64.575 3.83594 0
63.2804 1.70875 0
64.5461 1.69181 0
65.7825 -0.469806 0
68.313 -0.505192 0
68.3738 3.78325 0
65.8413 3.81869 0
67.0477 -0.487345 0
68.3434 1.63916 0
67.1075 3.80112 0
65.8119 1.67457 0
67.0777 1.65702 0
68.313 -0.505192 0
70.8435 -0.541809 0
70.9064 3.74659 0
68.3738 3.78325 0
69.5782 -0.523347 0
70.875 1.60252 0
69.6401 3.76507 0
68.3434 1.63916 0
69.6092 1.62099 0
70.8435 -0.541809 0
73.374 -0.579651 0
73.4391 3.7087 0
70.9064 3.74659 0
72.1088 -0.560577 0
73.4066 1.56465 0
72.1728 3.72779 0
70.875 1.60252 0
72.1408 1.58374 0
73.374 -0.579651 0
75.9046 -0.618708 0
75.9717 3.66959 0
73.4391 3.7087 0
74.6393 -0.599028 0
75.9382 1.52557 0
74.7054 3.68929 0
73.4066 1.56465 0
74.6724 1.54526 0
75.9046 -0.618708 0
78.4352 -0.658976 0
78.5043 3.62927 0
75.9717 3.66959 0
77.1699 -0.638691 0
78.4698 1.48528 0
77.238 3.64958 0
75.9382 1.52557 0
77.204 1.50557 0
78.4352 -0.658976 0
80.9658 -0.700445 0
81.037 3.58775 0
78.5043 3.62927 0
79.7005 -0.679561 0
81.0014 1.44378 0
79.7707 3.60866 0
78.4698 1.48528 0
79.7356 1.46468 0
80.9658 -0.700445 0
83.4965 -0.74311 0
83.5696 3.54503 0
81.037 3.58775 0
82.2311 -0.721628 0
83.5331 1.40109 0
82.3033 3.56654 0
81.0014 1.44378 0
82.2673 1.42258 0
83.4965 -0.74311 0
86.0271 -0.786962 0
86.1023 3.50113 0
83.5696 3.54503 0
84.7618 -0.764888 0
86.0648 1.35721 0
84.836 3.52323 0
83.5331 1.40109 0
84.7989 1.3793 0
86.0271 -0.786962 0
88.5578 -0.831995 0
88.635 3.45604 0
86.1023 3.50113 0
87.2925 -0.809331 0
88.5964 1.31215 0
87.3687 3.47873 0
86.0648 1.35721 0
87.3306 1.33483 0
88.5578 -0.831995 0
91.0885 -0.878201 0
91.1677 3.40978 0
88.635 3.45604 0
89.8232 -0.854952 0
91.1281 1.26591 0
89.9013 3.43305 0
88.5964 1.31215 0
89.8623 1.28918 0
91.0885 -0.878201 0
93.6193 -0.925573 0
93.7004 3.36235 0
91.1677 3.40978 0
92.3539 -0.901742 0
93.6599 1.21851 0
92.434 3.38621 0
91.1281 1.26591 0
92.394 1.24236 0
93.6193 -0.925573 0
96.15 -0.974105 0
96.2331 3.31376 0
93.7004 3.36235 0
94.8846 -0.949695 0
96.1916 1.16995 0
94.9668 3.3382 0
93.6599 1.21851 0
94.9257 1.19438 0
96.15 -0.974105 0
98.6808 -1.02379 0
98.7658 3.26402 0
96.2331 3.31376 0
97.4154 -0.998803 0
98.7233 1.12024 0
97.4995 3.28904 0
96.1916 1.16995 0
97.4575 1.14524 0
98.6808 -1.02379 0
101.212 -1.07462 0
101.299 3.21314 0
98.7658 3.26402 0
99.9462 -1.04906 0
101.255 1.06938 0
100.032 3.23872 0
98.7233 1.12024 0
99.9892 1.09495 0
101.212 -1.07462 0
103.742 -1.12658 0
103.831 3.16111 0
101.299 3.21314 0
102.477 -1.10046 0
103.787 1.01739 0
102.565 3.18727 0
101.255 1.06938 0
102.521 1.04353 0
103.742 -1.12658 0
106.273 -1.17968 0
106.364 3.10796 0
103.831 3.16111 0
105.008 -1.15299 0
106.319 0.964263 0
105.098 3.13468 0
103.787 1.01739 0
105.053 0.990966 0
106.273 -1.17968 0
108.804 -1.23389 0
108.897 3.05368 0
106.364 3.10796 0
107.539 -1.20664 0
108.85 0.910015 0
107.63 3.08096 0
106.319 0.964263 0
107.585 0.937279 0
108.804 -1.23389 0
111.335 -1.28923 0
111.43 2.99829 0
108.897 3.05368 0
110.07 -1.26142 0
111.382 0.85465 0
110.163 3.02613 0
108.85 0.910015 0
110.116 0.882471 0
111.335 -1.28923 0
113.866 -1.34567 0
113.962 2.94179 0
111.43 2.99829 0
112.6 -1.31731 0
113.914 0.798177 0
112.696 2.97018 0
111.382 0.85465 0
112.648 0.826552 0
113.866 -1.34567 0
116.397 -1.40321 0
116.495 2.88418 0
113.962 2.94179 0
115.131 -1.3743 0
116.446 0.740603 0
115.229 2.91312 0
113.914 0.798177 0
115.18 0.769527 0
116.397 -1.40321 0
118.928 -1.46185 0
119.028 2.82549 0
116.495 2.88418 0
117.662 -1.43239 0
118.978 0.681934 0
117.761 2.85497 0
116.446 0.740603 0
117.712 0.711405 0
118.928 -1.46185 0
121.459 -1.52157 0
121.561 2.7657 0
119.028 2.82549 0
120.193 -1.49158 0
121.51 0.622179 0
120.294 2.79573 0
118.978 0.681934 0
120.244 0.652192 0
121.459 -1.52157 0
123.99 -1.58238 0
124.093 2.70483 0
121.561 2.7657 0
122.724 -1.55184 0
124.042 0.561343 0
122.827 2.7354 0
121.51 0.622179 0
122.776 0.591896 0
123.99 -1.58238 0
126.521 -1.64425 0
126.626 2.6429 0
124.093 2.70483 0
125.255 -1.61318 0
126.573 0.499435 0
125.36 2.674 0
124.042 0.561343 0
125.307 0.530523 0
126.521 -1.64425 0
129.052 -1.70719 0
129.159 2.57989 0
126.626 2.6429 0
127.786 -1.67559 0
129.105 0.436462 0
127.893 2.61153 0
126.573 0.499435 0
127.839 0.468081 0
129.052 -1.70719 0
131.583 -1.77119 0
131.692 2.51583 0
129.159 2.57989 0
130.317 -1.73906 0
131.637 0.37243 0
130.425 2.54799 0
129.105 0.436462 0
130.371 0.404578 0
131.583 -1.77119 0
134.114 -1.83624 0
134.225 2.45072 0
131.692 2.51583 0
132.848 -1.80359 0
134.169 0.307348 0
132.958 2.4834 0
131.637 0.37243 0
132.903 0.34002 0
134.114 -1.83624 0
136.645 -1.90234 0
136.757 2.38456 0
134.225 2.45072 0
135.379 -1.86916 0
136.701 0.241222 0
135.491 2.41777 0
134.169 0.307348 0
135.435 0.274415 0
136.645 -1.90234 0
139.176 -1.96946 0
139.29 2.31736 0
136.757 2.38456 0
137.91 -1.93577 0
139.233 0.174059 0
138.024 2.35109 0
136.701 0.241222 0
137.967 0.20777 0
139.176 -1.96946 0
141.707 -2.03762 0
141.823 2.24914 0
139.29 2.31736 0
140.441 -2.00342 0
141.765 0.105867 0
140.557 2.28338 0
139.233 0.174059 0
140.499 0.140092 0
141.707 -2.03762 0
144.238 -2.1068 0
144.356 2.17989 0
141.823 2.24914 0
142.972 -2.07209 0
144.297 0.0366537 0
143.089 2.21464 0
141.765 0.105867 0
143.031 0.0713879 0
144.238 -2.1068 0
146.769 -2.177 0
146.889 2.10963 0
144.356 2.17989 0
145.503 -2.14177 0
146.829 -0.0335748 0
145.622 2.14489 0
144.297 0.0366537 0
145.563 0.00166587 0
146.769 -2.177 0
149.3 -2.2482 0
149.421 2.03836 0
146.889 2.10963 0
148.035 -2.21247 0
149.361 -0.104811 0
148.155 2.07412 0
[...]
    <PointData>
      <DataArray type="Float64" NumberOfComponents="3" Name="Displacement" format="ascii">
0 0 0
-0.00923467 -0.00459688 -0.00459688
-0.00550749 -0.00154999 -0.00154999
0 0 0
-0.00502608 -0.0028678 -0.0028678
-0.0069562 -0.00277711 -0.00277711
-0.00267224 -0.000554769 -0.000554769
0 0 0
-0.00331722 -0.0012246 -0.0012246
-0.00923467 -0.00459688 -0.00459688
-0.0172246 -0.00797747 -0.00797747
-0.0114719 -0.00447814 -0.00447814
-0.00550749 -0.00154999 -0.00154999
-0.0132409 -0.00622329 -0.00622329
-0.014204 -0.00605042 -0.00605042
-0.00846128 -0.00287262 -0.00287262
-0.0069562 -0.00277711 -0.00277711
-0.0106006 -0.00436467 -0.00436467
-0.0172246 -0.00797747 -0.00797747
-0.0252877 -0.0120567 -0.0120567
-0.0174904 -0.00850232 -0.00850232
-0.0114719 -0.00447814 -0.00447814
-0.0212416 -0.00989735 -0.00989735
-0.0213466 -0.0101448 -0.0101448
-0.0144846 -0.00634844 -0.00634844
-0.014204 -0.00605042 -0.00605042
-0.0177844 -0.00796397 -0.00796397
-0.0252877 -0.0120567 -0.0120567
-0.033419 -0.0173083 -0.0173083
-0.02348 -0.0137455 -0.0137455
-0.0174904 -0.00850232 -0.00850232
-0.0293472 -0.0145235 -0.0145235
-0.0284296 -0.015386 -0.015386
-0.0204902 -0.0109644 -0.0109644
-0.0213466 -0.0101448 -0.0101448
-0.0248929 -0.0126112 -0.0126112
-0.033419 -0.0173083 -0.0173083
-0.0415957 -0.0238405 -0.0238405
-0.029421 -0.0202948 -0.0202948
-0.02348 -0.0137455 -0.0137455
-0.0375039 -0.0204098 -0.0204098
-0.0354907 -0.0219279 -0.0219279
-0.0264562 -0.0168532 -0.0168532
-0.0284296 -0.015386 -0.015386
-0.0319623 -0.0184895 -0.0184895
-0.0415957 -0.0238405 -0.0238405
-0.0497777 -0.0317267 -0.0317267
-0.0353258 -0.0282003 -0.0282003
-0.029421 -0.0202948 -0.0202948
-0.0456873 -0.0276126 -0.0276126
-0.0425309 -0.0298194 -0.0298194
-0.0323775 -0.0240766 -0.0240766
-0.0354907 -0.0219279 -0.0219279
-0.0390135 -0.0257034 -0.0257034
-0.0497777 -0.0317267 -0.0317267
-0.0579515 -0.0409766 -0.0409766
-0.0411975 -0.037476 -0.037476
-0.0353258 -0.0282003 -0.0282003
-0.0538665 -0.0361807 -0.0361807
-0.0495503 -0.0390815 -0.0390815
-0.0382655 -0.0326665 -0.0326665
-0.0425309 -0.0298194 -0.0298194
-0.0460434 -0.0342787 -0.0342787
-0.0579515 -0.0409766 -0.0409766
-0.0661025 -0.0515992 -0.0515992
-0.0470413 -0.0481255 -0.0481255
-0.0411975 -0.037476 -0.037476
-0.0620304 -0.0461164 -0.0461164
-0.0565449 -0.0497166 -0.0497166
-0.0441227 -0.0426292 -0.0426292
-0.0495503 -0.0390815 -0.0390815
-0.0530508 -0.0442276 -0.0442276
-0.0661025 -0.0515992 -0.0515992
-0.074225 -0.0635888 -0.0635888
-0.0528587 -0.0601446 -0.0601446
-0.0470413 -0.0481255 -0.0481255
-0.0701675 -0.0574234 -0.0574234
-0.0635131 -0.0617211 -0.0617211
-0.0499532 -0.0539643 -0.0539643
-0.0565449 -0.0497166 -0.0497166
-0.0600324 -0.055548 -0.055548
-0.074225 -0.0635888 -0.0635888
-0.0823151 -0.0769407 -0.0769407
-0.0586517 -0.0735271 -0.0735271
-0.0528587 -0.0601446 -0.0601446
-0.0782742 -0.0700949 -0.0700949
-0.0704535 -0.0750885 -0.0750885
-0.0557582 -0.0666659 -0.0666659
-0.0635131 -0.0617211 -0.0617211
-0.0669868 -0.0682349 -0.0682349
-0.0823151 -0.0769407 -0.0769407
-0.0903715 -0.0916472 -0.0916472
-0.0644211 -0.0882655 -0.0882655
-0.0586517 -0.0735271 -0.0735271
-0.0863476 -0.0841251 -0.0841251
-0.0773658 -0.0898115 -0.0898115
-0.0615393 -0.0807273 -0.0807273
-0.0704535 -0.0750885 -0.0750885
-0.0739132 -0.082281 -0.082281
-0.0903715 -0.0916472 -0.0916472
-0.0983938 -0.107701 -0.107701
-0.0701677 -0.104352 -0.104352
-0.0644211 -0.0882655 -0.0882655
-0.0943869 -0.0995061 -0.0995061
-0.0842498 -0.105882 -0.105882
-0.0672972 -0.0961408 -0.0961408
-0.0773658 -0.0898115 -0.0898115
-0.0808113 -0.097679 -0.097679
-0.0983938 -0.107701 -0.107701
-0.106382 -0.125094 -0.125094
-0.0758924 -0.12178 -0.12178
-0.0701677 -0.104352 -0.104352
-0.102392 -0.116231 -0.116231
-0.091106 -0.123294 -0.123294
-0.0730327 -0.112899 -0.112899
-0.0842498 -0.105882 -0.105882
-0.0876814 -0.114421 -0.114421
-0.106382 -0.125094 -0.125094
-0.114337 -0.14382 -0.14382
-0.0815957 -0.140541 -0.140541
-0.0758924 -0.12178 -0.12178
-0.110363 -0.134291 -0.134291
-0.0979349 -0.142038 -0.142038
-0.0787466 -0.130994 -0.130994
-0.091106 -0.123294 -0.123294
-0.0945238 -0.1325 -0.1325
-0.114337 -0.14382 -0.14382
-0.122258 -0.163871 -0.163871
-0.0872783 -0.160628 -0.160628
-0.0815957 -0.140541 -0.140541
-0.118302 -0.153681 -0.153681
-0.104737 -0.162108 -0.162108
-0.0844395 -0.150419 -0.150419
-0.0979349 -0.142038 -0.142038
-0.101339 -0.151908 -0.151908
-0.122258 -0.163871 -0.163871
-0.130148 -0.18524 -0.18524
-0.0929409 -0.182034 -0.182034
-0.0872783 -0.160628 -0.160628
-0.126207 -0.174391 -0.174391
-0.111513 -0.183496 -0.183496
-0.0901121 -0.171167 -0.171167
-0.104737 -0.162108 -0.162108
-0.108128 -0.172637 -0.172637
-0.130148 -0.18524 -0.18524
-0.138005 -0.207918 -0.207918
-0.0985841 -0.204751 -0.204751
-0.0929409 -0.182034 -0.182034
-0.13408 -0.196416 -0.196416
-0.118263 -0.206195 -0.206195
-0.0957649 -0.193229 -0.193229
-0.111513 -0.183496 -0.183496
-0.114891 -0.194682 -0.194682
-0.138005 -0.207918 -0.207918
-0.145831 -0.2319 -0.2319
-0.104208 -0.228773 -0.228773
-0.0985841 -0.204751 -0.204751
-0.141922 -0.219747 -0.219747
-0.124988 -0.230197 -0.230197
-0.101399 -0.216599 -0.216599
-0.118263 -0.206195 -0.206195
-0.121629 -0.218033 -0.218033
-0.145831 -0.2319 -0.2319
-0.153627 -0.257178 -0.257178
-0.109815 -0.254091 -0.254091
-0.104208 -0.228773 -0.228773
-0.149733 -0.244378 -0.244378
-0.131689 -0.255496 -0.255496
-0.107014 -0.24127 -0.24127
-0.124988 -0.230197 -0.230197
-0.128342 -0.242685 -0.242685
-0.153627 -0.257178 -0.257178
-0.161393 -0.283745 -0.283745
-0.115403 -0.280699 -0.280699
-0.109815 -0.254091 -0.254091
-0.157514 -0.270301 -0.270301
-0.138367 -0.282085 -0.282085
-0.112611 -0.267235 -0.267235
-0.131689 -0.255496 -0.255496
-0.135031 -0.26863 -0.26863
-0.161393 -0.283745 -0.283745
-0.16913 -0.311594 -0.311594
-0.120975 -0.30859 -0.30859
-0.115403 -0.280699 -0.280699
-0.165265 -0.29751 -0.29751
-0.145021 -0.309955 -0.309955
-0.118191 -0.294485 -0.294485
-0.138367 -0.282085 -0.282085
-0.141696 -0.29586 -0.29586
-0.16913 -0.311594 -0.311594
-0.176837 -0.340716 -0.340716
-0.12653 -0.337756 -0.337756
-0.120975 -0.30859 -0.30859
-0.172987 -0.325996 -0.325996
-0.151652 -0.3391 -0.3391
-0.123754 -0.323014 -0.323014
-0.145021 -0.309955 -0.309955
-0.148339 -0.324368 -0.324368
-0.176837 -0.340716 -0.340716
-0.184517 -0.371106 -0.371106
-0.132069 -0.36819 -0.36819
-0.12653 -0.337756 -0.337756
-0.180681 -0.355753 -0.355753
-0.158261 -0.369513 -0.369513
-0.129301 -0.352815 -0.352815
-0.151652 -0.3391 -0.3391
-0.154959 -0.354148 -0.354148
-0.184517 -0.371106 -0.371106
-0.192169 -0.402756 -0.402756
-0.137593 -0.399885 -0.399885
-0.132069 -0.36819 -0.36819
-0.188346 -0.386774 -0.386774
-0.164849 -0.401186 -0.401186
-0.134833 -0.38388 -0.38388
-0.158261 -0.369513 -0.369513
-0.161558 -0.385192 -0.385192
-0.192169 -0.402756 -0.402756
-0.199794 -0.435658 -0.435658
-0.143102 -0.432833 -0.432833
-0.137593 -0.399885 -0.399885
-0.195985 -0.419051 -0.419051
-0.171416 -0.434112 -0.434112
-0.140349 -0.416203 -0.416203
-0.164849 -0.401186 -0.401186
-0.168135 -0.417493 -0.417493
-0.199794 -0.435658 -0.435658
-0.207392 -0.469806 -0.469806
-0.148597 -0.467028 -0.467028
-0.143102 -0.432833 -0.432833
-0.203596 -0.452577 -0.452577
-0.177962 -0.468284 -0.468284
-0.145851 -0.449775 -0.449775
-0.171416 -0.434112 -0.434112
-0.174692 -0.451043 -0.451043
-0.207392 -0.469806 -0.469806
-0.214964 -0.505192 -0.505192
-0.154078 -0.502462 -0.502462
-0.148597 -0.467028 -0.467028
-0.211181 -0.487345 -0.487345
-0.184489 -0.503695 -0.503695
-0.151339 -0.484591 -0.484591
-0.177962 -0.468284 -0.468284
-0.181228 -0.485835 -0.485835
-0.214964 -0.505192 -0.505192
-0.22251 -0.541809 -0.541809
-0.159545 -0.539128 -0.539128
-0.154078 -0.502462 -0.502462
-0.21874 -0.523347 -0.523347
-0.190996 -0.540337 -0.540337
-0.156813 -0.520642 -0.520642
-0.184489 -0.503695 -0.503695
-0.187745 -0.521863 -0.521863
-0.22251 -0.541809 -0.541809
-0.230032 -0.579651 -0.579651
-0.165 -0.577019 -0.577019
-0.159545 -0.539128 -0.539128
-0.226274 -0.560577 -0.560577
-0.197484 -0.578204 -0.578204
-0.162274 -0.557921 -0.557921
-0.190996 -0.540337 -0.540337
-0.194242 -0.559118 -0.559118
-0.230032 -0.579651 -0.579651
-0.237529 -0.618708 -0.618708
-0.170442 -0.616127 -0.616127
-0.165 -0.577019 -0.577019
-0.233783 -0.599028 -0.599028
-0.203953 -0.617288 -0.617288
-0.167723 -0.596421 -0.596421
-0.197484 -0.578204 -0.578204
-0.200721 -0.597594 -0.597594
-0.237529 -0.618708 -0.618708
-0.245001 -0.658976 -0.658976
-0.175873 -0.656445 -0.656445
-0.170442 -0.616127 -0.616127
-0.241268 -0.638691 -0.638691
-0.210405 -0.657581 -0.657581
-0.173159 -0.636135 -0.636135
-0.203953 -0.617288 -0.617288
-0.207181 -0.637284 -0.637284
-0.245001 -0.658976 -0.658976
-0.25245 -0.700445 -0.700445
-0.181292 -0.697966 -0.697966
-0.175873 -0.656445 -0.656445
-0.248729 -0.679561 -0.679561
-0.216839 -0.699078 -0.699078
-0.178584 -0.677056 -0.677056
-0.210405 -0.657581 -0.657581
-0.213624 -0.67818 -0.67818
-0.25245 -0.700445 -0.700445
-0.259876 -0.74311 -0.74311
-0.186701 -0.740683 -0.740683
-0.181292 -0.697966 -0.697966
-0.256166 -0.721628 -0.721628
-0.223256 -0.741769 -0.741769
-0.183998 -0.719176 -0.719176
-0.216839 -0.699078 -0.699078
-0.220049 -0.720274 -0.720274
-0.259876 -0.74311 -0.74311
-0.267279 -0.786962 -0.786962
-0.192099 -0.784589 -0.784589
-0.186701 -0.740683 -0.740683
-0.26358 -0.764888 -0.764888
-0.229656 -0.785649 -0.785649
-0.189401 -0.762488 -0.762488
-0.223256 -0.741769 -0.741769
-0.226458 -0.763561 -0.763561
-0.267279 -0.786962 -0.786962
-0.274659 -0.831995 -0.831995
-0.197486 -0.829676 -0.829676
-0.192099 -0.784589 -0.784589
-0.270972 -0.809331 -0.809331
-0.23604 -0.83071 -0.83071
-0.194794 -0.806985 -0.806985
-0.229656 -0.785649 -0.785649
-0.23285 -0.808032 -0.808032
-0.274659 -0.831995 -0.831995
-0.282018 -0.878201 -0.878201
-0.202865 -0.875937 -0.875937
-0.197486 -0.829676 -0.829676
-0.278341 -0.854952 -0.854952
-0.242409 -0.876944 -0.876944
-0.200177 -0.85266 -0.85266
-0.23604 -0.83071 -0.83071
-0.239226 -0.853681 -0.853681
-0.282018 -0.878201 -0.878201
-0.289355 -0.925573 -0.925573
-0.208234 -0.923365 -0.923365
-0.202865 -0.875937 -0.875937
-0.285689 -0.901742 -0.901742
-0.248761 -0.924345 -0.924345
-0.20555 -0.899505 -0.899505
-0.242409 -0.876944 -0.876944
-0.245587 -0.900499 -0.900499
-0.289355 -0.925573 -0.925573
-0.29667 -0.974105 -0.974105
-0.213594 -0.971952 -0.971952
-0.208234 -0.923365 -0.923365
-0.293015 -0.949695 -0.949695
-0.255099 -0.972905 -0.972905
-0.210915 -0.947514 -0.947514
-0.248761 -0.924345 -0.924345
-0.251932 -0.948481 -0.948481
-0.29667 -0.974105 -0.974105
-0.303965 -1.02379 -1.02379
-0.218945 -1.02169 -1.02169
-0.213594 -0.971952 -0.971952
-0.30032 -0.998803 -0.998803
-0.261423 -1.02262 -1.02262
-0.21627 -0.996679 -0.996679
-0.255099 -0.972905 -0.972905
-0.258263 -0.997618 -0.997618
-0.303965 -1.02379 -1.02379
-0.31124 -1.07462 -1.07462
-0.224289 -1.07258 -1.07258
-0.218945 -1.02169 -1.02169
-0.307605 -1.04906 -1.04906
-0.267732 -1.07347 -1.07347
-0.221618 -1.04699 -1.04699
-0.261423 -1.02262 -1.02262
-0.264579 -1.0479 -1.0479
-0.31124 -1.07462 -1.07462
-0.318495 -1.12658 -1.12658
-0.229625 -1.1246 -1.1246
-0.224289 -1.07258 -1.07258
-0.31487 -1.10046 -1.10046
-0.274027 -1.12547 -1.12547
-0.226958 -1.09845 -1.09845
-0.267732 -1.07347 -1.07347
-0.270881 -1.09933 -1.09933
-0.318495 -1.12658 -1.12658
-0.32573 -1.17968 -1.17968
-0.234953 -1.17775 -1.17775
-0.229625 -1.1246 -1.1246
-0.322115 -1.15299 -1.15299
-0.280309 -1.17859 -1.17859
-0.23229 -1.15104 -1.15104
-0.274027 -1.12547 -1.12547
-0.27717 -1.15189 -1.15189
-0.32573 -1.17968 -1.17968
-0.332946 -1.23389 -1.23389
-0.240275 -1.23203 -1.23203
-0.234953 -1.17775 -1.17775
-0.32934 -1.20664 -1.20664
-0.286577 -1.23284 -1.23284
-0.237615 -1.20475 -1.20475
-0.280309 -1.17859 -1.17859
-0.283445 -1.20558 -1.20558
-0.332946 -1.23389 -1.23389
-0.340143 -1.28923 -1.28923
-0.24559 -1.28742 -1.28742
-0.240275 -1.23203 -1.23203
-0.336546 -1.26142 -1.26142
-0.292833 -1.28821 -1.28821
-0.242933 -1.25959 -1.25959
-0.286577 -1.23284 -1.23284
-0.289707 -1.26039 -1.26039
-0.340143 -1.28923 -1.28923
-0.347321 -1.34567 -1.34567
-0.250898 -1.34393 -1.34393
-0.24559 -1.28742 -1.28742
-0.343734 -1.31731 -1.31731
-0.299077 -1.34468 -1.34468
-0.248245 -1.31554 -1.31554
-0.292833 -1.28821 -1.28821
-0.295957 -1.31631 -1.31631
-0.347321 -1.34567 -1.34567
-0.354481 -1.40321 -1.40321
-0.256201 -1.40153 -1.40153
-0.250898 -1.34393 -1.34393
-0.350903 -1.3743 -1.3743
-0.305308 -1.40225 -1.40225
-0.25355 -1.37259 -1.37259
-0.299077 -1.34468 -1.34468
-0.302194 -1.37333 -1.37333
-0.354481 -1.40321 -1.40321
-0.361623 -1.46185 -1.46185
-0.261498 -1.46023 -1.46023
-0.256201 -1.40153 -1.40153
-0.358054 -1.43239 -1.43239
-0.311527 -1.46092 -1.46092
-0.25885 -1.43074 -1.43074
-0.305308 -1.40225 -1.40225
-0.308419 -1.43145 -1.43145
-0.361623 -1.46185 -1.46185
-0.368747 -1.52157 -1.52157
-0.266789 -1.52001 -1.52001
-0.261498 -1.46023 -1.46023
-0.365187 -1.49158 -1.49158
-0.317735 -1.52068 -1.52068
-0.264144 -1.48999 -1.48999
-0.311527 -1.46092 -1.46092
-0.314633 -1.49067 -1.49067
-0.368747 -1.52157 -1.52157
-0.375854 -1.58238 -1.58238
-0.272076 -1.58088 -1.58088
-0.266789 -1.52001 -1.52001
-0.372302 -1.55184 -1.55184
-0.323932 -1.58151 -1.58151
-0.269433 -1.55031 -1.55031
-0.317735 -1.52068 -1.52068
-0.320835 -1.55096 -1.55096
-0.375854 -1.58238 -1.58238
-0.382943 -1.64425 -1.64425
-0.277358 -1.64282 -1.64282
-0.272076 -1.58088 -1.58088
-0.379401 -1.61318 -1.61318
-0.330118 -1.64342 -1.64342
-0.274717 -1.61172 -1.61172
-0.323932 -1.58151 -1.58151
-0.327026 -1.61233 -1.61233
-0.382943 -1.64425 -1.64425
-0.390016 -1.70719 -1.70719
-0.282635 -1.70582 -1.70582
-0.277358 -1.64282 -1.64282
-0.386482 -1.67559 -1.67559
-0.336293 -1.7064 -1.7064
-0.279997 -1.67419 -1.67419
-0.330118 -1.64342 -1.64342
-0.333206 -1.67478 -1.67478
-0.390016 -1.70719 -1.70719
-0.397073 -1.77119 -1.77119
-0.287908 -1.76989 -1.76989
-0.282635 -1.70582 -1.70582
-0.393547 -1.73906 -1.73906
-0.342457 -1.77043 -1.77043
-0.285272 -1.73772 -1.73772
-0.336293 -1.7064 -1.7064
-0.339376 -1.73828 -1.73828
-0.397073 -1.77119 -1.77119
-0.404113 -1.83624 -1.83624
-0.293177 -1.835 -1.835
-0.287908 -1.76989 -1.76989
-0.400595 -1.80359 -1.80359
-0.348612 -1.83551 -1.83551
-0.290543 -1.80231 -1.80231
-0.342457 -1.77043 -1.77043
-0.345536 -1.80284 -1.80284
-0.404113 -1.83624 -1.83624
-0.411137 -1.90234 -1.90234
-0.298442 -1.90116 -1.90116
-0.293177 -1.835 -1.835
-0.407627 -1.86916 -1.86916
-0.354756 -1.90164 -1.90164
-0.29581 -1.86795 -1.86795
-0.348612 -1.83551 -1.83551
-0.351685 -1.86844 -1.86844
-0.411137 -1.90234 -1.90234
-0.418145 -1.96946 -1.96946
-0.303704 -1.96835 -1.96835
-0.298442 -1.90116 -1.90116
-0.414643 -1.93577 -1.93577
-0.360891 -1.9688 -1.9688
-0.301073 -1.93462 -1.93462
-0.354756 -1.90164 -1.90164
-0.357825 -1.93509 -1.93509
-0.418145 -1.96946 -1.96946
-0.425138 -2.03762 -2.03762
-0.308962 -2.03657 -2.03657
-0.303704 -1.96835 -1.96835
-0.421643 -2.00342 -2.00342
-0.367017 -2.03699 -2.03699
-0.306333 -2.00233 -2.00233
-0.360891 -1.9688 -1.9688
-0.363955 -2.00277 -2.00277
-0.425138 -2.03762 -2.03762
-0.432115 -2.1068 -2.1068
-0.314217 -2.10582 -2.10582
-0.308962 -2.03657 -2.03657
-0.428628 -2.07209 -2.07209
-0.373133 -2.1062 -2.1062
-0.31159 -2.07107 -2.07107
-0.367017 -2.03699 -2.03699
-0.370076 -2.07147 -2.07147
-0.432115 -2.1068 -2.1068
-0.439077 -2.177 -2.177
-0.31947 -2.17608 -2.17608
-0.314217 -2.10582 -2.10582
-0.435598 -2.14177 -2.14177
-0.37924 -2.17643 -2.17643
-0.316844 -2.14082 -2.14082
-0.373133 -2.1062 -2.1062
-0.376188 -2.14119 -2.14119
-0.439077 -2.177 -2.177
-0.446024 -2.2482 -2.2482
-0.32472 -2.24735 -2.24735
-0.31947 -2.17608 -2.17608
-0.442553 -2.21247 -2.21247
-0.385339 -2.24767 -2.24767
-0.322095 -2.21159 -2.21159
-0.37924 -2.17643 -2.17643
-0.382291 -2.21192 -2.21192
-0.446024 -2.2482 -2.2482
-0.452957 -2.3204 -2.3204
-0.329967 -2.31962 -2.31962
-0.32472 -2.24735 -2.24735
-0.449492 -2.28418 -2.28418
-0.391429 -2.3199 -2.3199
-0.327344 -2.28336 -2.28336
-0.385339 -2.24767 -2.24767
-0.388385 -2.28366 -2.28366
-0.452957 -2.3204 -2.3204
-0.459875 -2.3936 -2.3936
-0.335212 -2.39288 -2.39288
-0.329967 -2.31962 -2.31962
-0.456418 -2.35688 -2.35688
-0.39751 -2.39313 -2.39313
-0.33259 -2.35613 -2.35613
-0.391429 -2.3199 -2.3199
-0.39447 -2.3564 -2.3564
-0.459875 -2.3936 -2.3936
-0.466778 -2.46778 -2.46778
-0.340455 -2.46713 -2.46713
-0.335212 -2.39288 -2.39288
-0.463328 -2.43056 -2.43056
-0.403583 -2.46735 -2.46735
-0.337834 -2.42988 -2.42988
-0.39751 -2.39313 -2.39313
-0.400548 -2.43012 -2.43012
-0.466778 -2.46778 -2.46778
-0.473667 -2.54294 -2.54294
-0.345696 -2.54236 -2.54236
-0.340455 -2.46713 -2.46713
-0.470225 -2.50524 -2.50524
-0.409649 -2.54254 -2.54254
-0.343076 -2.50462 -2.50462
-0.403583 -2.46735 -2.46735
-0.406617 -2.50482 -2.50482
-0.473667 -2.54294 -2.54294
-0.480543 -2.61907 -2.61907
-0.350936 -2.61855 -2.61855
-0.345696 -2.54236 -2.54236
-0.477107 -2.58088 -2.58088
-0.415706 -2.61871 -2.61871
-0.348316 -2.58033 -2.58033
-0.409649 -2.54254 -2.54254
-0.412678 -2.5805 -2.5805
-0.480543 -2.61907 -2.61907
-0.487404 -2.69616 -2.69616
-0.356173 -2.69572 -2.69572
-0.350936 -2.61855 -2.61855
-0.483975 -2.6575 -2.6575
-0.421755 -2.69584 -2.69584
-0.353555 -2.65701 -2.65701
-0.415706 -2.61871 -2.61871
-0.418732 -2.65715 -2.65715
-0.487404 -2.69616 -2.69616
-0.494252 -2.77421 -2.77421
-0.36141 -2.77384 -2.77384
-0.356173 -2.69572 -2.69572
-0.490829 -2.73507 -2.73507
-0.427797 -2.77392 -2.77392
-0.358792 -2.73466 -2.73466
-0.421755 -2.69584 -2.69584
-0.424777 -2.73476 -2.73476
-0.494252 -2.77421 -2.77421
-0.501085 -2.85321 -2.85321
-0.366645 -2.85291 -2.85291
-0.36141 -2.77384 -2.77384
-0.49767 -2.8136 -2.8136
-0.433832 -2.85296 -2.85296
-0.364027 -2.81325 -2.81325
-0.427797 -2.77392 -2.77392
-0.430815 -2.81332 -2.81332
-0.501085 -2.85321 -2.85321
-0.507906 -2.93316 -2.93316
-0.371879 -2.93292 -2.93292
-0.366645 -2.85291 -2.85291
-0.504497 -2.89307 -2.89307
-0.439859 -2.93294 -2.93294
-0.369262 -2.89279 -2.89279
-0.433832 -2.85296 -2.85296
-0.436846 -2.89283 -2.89283
-0.507906 -2.93316 -2.93316
-0.514713 -3.01404 -3.01404
-0.377111 -3.01386 -3.01386
-0.371879 -2.93292 -2.93292
-0.511311 -2.97348 -2.97348
-0.445879 -3.01385 -3.01385
-0.374495 -2.97327 -2.97327
-0.439859 -2.93294 -2.93294
-0.44287 -2.97328 -2.97328
-0.514713 -3.01404 -3.01404
-0.521507 -3.09584 -3.09584
-0.382343 -3.09574 -3.09574
-0.377111 -3.01386 -3.01386
-0.518112 -3.05482 -3.05482
-0.451892 -3.09569 -3.09569
-0.379727 -3.05469 -3.05469
-0.445879 -3.01385 -3.01385
-0.448886 -3.05466 -3.05466
-0.521507 -3.09584 -3.09584
-0.528288 -3.17857 -3.17857
-0.387574 -3.17854 -3.17854
-0.382343 -3.09574 -3.09574
-0.524899 -3.13709 -3.13709
-0.457898 -3.17846 -3.17846
-0.384959 -3.13702 -3.13702
-0.451892 -3.09569 -3.09569
-0.454896 -3.13696 -3.13696
-0.528288 -3.17857 -3.17857
-0.535055 -3.26221 -3.26221
-0.392804 -3.26225 -3.26225
-0.387574 -3.17854 -3.17854
-0.531673 -3.22028 -3.22028
-0.463896 -3.26213 -3.26213
-0.390189 -3.22028 -3.22028
-0.457898 -3.17846 -3.17846
-0.460898 -3.22018 -3.22018
-0.535055 -3.26221 -3.26221
-0.54181 -3.34676 -3.34676
-0.398034 -3.34686 -3.34686
-0.392804 -3.26225 -3.26225
-0.538434 -3.30437 -3.30437
-0.469889 -3.34671 -3.34671
-0.395419 -3.30444 -3.30444
-0.463896 -3.26213 -3.26213
-0.466893 -3.30431 -3.30431
-0.54181 -3.34676 -3.34676
-0.548552 -3.4322 -3.4322
-0.403263 -3.43238 -3.43238
-0.398034 -3.34686 -3.34686
-0.545183 -3.38937 -3.38937
-0.475874 -3.4322 -3.4322
-0.400649 -3.38951 -3.38951
-0.469889 -3.34671 -3.34671
-0.472882 -3.38934 -3.38934
-0.548552 -3.4322 -3.4322
-0.555281 -3.51854 -3.51854
-0.408491 -3.51879 -3.51879
-0.403263 -3.43238 -3.43238
-0.551918 -3.47526 -3.47526
-0.481853 -3.51857 -3.51857
-0.405877 -3.47547 -3.47547
-0.475874 -3.4322 -3.4322
-0.478864 -3.47527 -3.47527
-0.555281 -3.51854 -3.51854
-0.561997 -3.60576 -3.60576
-0.413719 -3.60608 -3.60608
-0.408491 -3.51879 -3.51879
-0.558641 -3.56204 -3.56204
-0.487825 -3.60583 -3.60583
-0.411105 -3.56232 -3.56232