<?xml version="1.0"?>
<VTKFile type="UnstructuredGrid">
  <UnstructuredGrid>
  <Piece NumberOfPoints="12411"  NumberOfCells="1379">
    <Points>
      <DataArray type="Float64" NumberOfComponents="3" format="ascii">
0 0 0
2.53576 -0.00115192 0
2.5367 4.28532 0
0 4.28571 0
1.26778 -0.000717984 0
2.53633 2.14216 0
1.26837 4.28557 0
0 2.14286 0
1.26821 2.14255 0
2.53576 -0.00115192 0
5.07184 -0.00200091 0
5.07328 4.28459 0
2.5367 4.28532 0
3.8038 -0.00156038 0
5.07259 2.14134 0
3.80499 4.28499 0
2.53633 2.14216 0
3.80446 2.14176 0
5.07184 -0.00200091 0
7.60789 -0.00302514 0
7.60985 4.28358 0
5.07328 4.28459 0
6.33987 -0.00248303 0
7.60888 2.14031 0
6.34156 4.28412 0
5.07259 2.14134 0
6.34073 2.14086 0
7.60789 -0.00302514 0
10.1439 -0.00434302 0
10.1464 4.28227 0
7.60985 4.28358 0
8.87592 -0.00364427 0
10.1452 2.139 0
8.87813 4.28296 0
7.60888 2.14031 0
8.87703 2.13969 0
10.1439 -0.00434302 0
12.68 -0.00598178 0
12.683 4.28062 0
10.1464 4.28227 0
11.412 -0.00512117 0
12.6815 2.13736 0
11.4147 4.28149 0
10.1452 2.139 0
11.4133 2.13822 0
12.68 -0.00598178 0
15.216 -0.00795984 0
15.2196 4.27864 0
12.683 4.28062 0
13.948 -0.00692797 0
15.2178 2.13538 0
13.9513 4.27968 0
12.6815 2.13736 0
13.9496 2.13641 0
15.216 -0.00795984 0
17.752 -0.0102797 0
17.7562 4.27632 0
15.2196 4.27864 0
16.484 -0.00907694 0
17.7541 2.13306 0
16.4879 4.27752 0
15.2178 2.13538 0
16.486 2.13426 0
17.752 -0.0102797 0
20.2881 -0.0129437 0
20.2928 4.27365 0
17.7562 4.27632 0
19.02 -0.0115687 0
20.2905 2.13039 0
19.0245 4.27503 0
17.7541 2.13306 0
19.0223 2.13176 0
20.2881 -0.0129437 0
22.8241 -0.0159505 0
22.8295 4.27064 0
20.2928 4.27365 0
21.5561 -0.0144043 0
22.8268 2.12738 0
21.5611 4.27219 0
20.2905 2.13039 0
21.5586 2.12893 0
22.8241 -0.0159505 0
25.3602 -0.0192987 0
25.3661 4.26728 0
22.8295 4.27064 0
24.0921 -0.017582 0
25.3631 2.12403 0
24.0978 4.269 0
22.8268 2.12738 0
24.095 2.12575 0
25.3602 -0.0192987 0
27.8962 -0.0229867 0
27.9027 4.26359 0
25.3661 4.26728 0
26.6282 -0.0211004 0
27.8995 2.12034 0
26.6344 4.26548 0
25.3631 2.12403 0
26.6313 2.12223 0
27.8962 -0.0229867 0
30.4323 -0.0270124 0
30.4394 4.25956 0
27.9027 4.26359 0
29.1643 -0.0249574 0
30.4358 2.11631 0
29.171 4.26162 0
27.8995 2.12034 0
29.1677 2.11837 0
30.4323 -0.0270124 0
32.9684 -0.0313741 0
32.976 4.25519 0
30.4394 4.25956 0
31.7004 -0.0291514 0
32.9722 2.11194 0
31.7077 4.25742 0
30.4358 2.11631 0
31.704 2.11417 0
32.9684 -0.0313741 0
35.5045 -0.0360699 0
35.5127 4.25049 0
32.976 4.25519 0
34.2364 -0.0336804 0
35.5086 2.10725 0
34.2443 4.25288 0
32.9722 2.11194 0
34.2404 2.10964 0
35.5045 -0.0360699 0
38.0406 -0.0410979 0
38.0493 4.24546 0
35.5127 4.25049 0
36.7725 -0.0385425 0
38.045 2.10221 0
36.781 4.24801 0
35.5086 2.10725 0
36.7768 2.10477 0
38.0406 -0.0410979 0
40.5767 -0.0464563 0
40.586 4.24009 0
38.0493 4.24546 0
39.3087 -0.0437359 0
40.5814 2.09685 0
39.3177 4.24281 0
38.045 2.10221 0
39.3132 2.09957 0
40.5767 -0.0464563 0
43.1128 -0.0521432 0
43.1227 4.2344 0
40.586 4.24009 0
41.8448 -0.0492588 0
43.1178 2.09116 0
41.8544 4.23729 0
40.5814 2.09685 0
41.8496 2.09405 0
43.1128 -0.0521432 0
45.649 -0.0581569 0
45.6594 4.22838 0
43.1227 4.2344 0
44.3809 -0.0551093 0
45.6542 2.08515 0
44.391 4.23143 0
43.1178 2.09116 0
44.386 2.08819 0
45.649 -0.0581569 0
48.1851 -0.0644956 0
48.1961 4.22203 0
45.6594 4.22838 0
46.917 -0.0612857 0
48.1906 2.0788 0
46.9277 4.22525 0
45.6542 2.08515 0
46.9224 2.08202 0
48.1851 -0.0644956 0
50.7213 -0.0711573 0
50.7328 4.21537 0
48.1961 4.22203 0
49.4532 -0.0677861 0
50.727 2.07214 0
49.4644 4.21874 0
48.1906 2.0788 0
49.4588 2.07551 0
50.7213 -0.0711573 0
53.2574 -0.0781403 0
53.2695 4.20838 0
50.7328 4.21537 0
51.9894 -0.0746088 0
53.2635 2.06515 0
52.0011 4.21191 0
50.727 2.07214 0
51.9953 2.06869 0
53.2574 -0.0781403 0
55.7936 -0.0854429 0
55.8062 4.20107 0
53.2695 4.20838 0
54.5255 -0.0817518 0
55.7999 2.05785 0
54.5378 4.20476 0
53.2635 2.06515 0
54.5317 2.06154 0
55.7936 -0.0854429 0
58.3298 -0.0930631 0
58.3429 4.19344 0
55.8062 4.20107 0
57.0617 -0.0892134 0
58.3364 2.05022 0
57.0746 4.19729 0
55.7999 2.05785 0
57.0681 2.05407 0
58.3298 -0.0930631 0
60.866 -0.100999 0
60.8796 4.1855 0
58.3429 4.19344 0
59.5979 -0.0969918 0
60.8728 2.04228 0
59.6113 4.18951 0
58.3364 2.05022 0
59.6046 2.04629 0
60.866 -0.100999 0
63.4022 -0.109249 0
63.4164 4.17724 0
60.8796 4.1855 0
62.1341 -0.105085 0
63.4093 2.03403 0
62.148 4.18141 0
60.8728 2.04228 0
62.1411 2.0382 0
63.4022 -0.109249 0
65.9384 -0.117812 0
65.9531 4.16867 0
63.4164 4.17724 0
64.6703 -0.113492 0
65.9458 2.02546 0
64.6848 4.173 0
63.4093 2.03403 0
64.6775 2.02979 0
65.9384 -0.117812 0
68.4746 -0.126684 0
68.4899 4.1598 0
65.9531 4.16867 0
67.2065 -0.122209 0
68.4823 2.01659 0
67.2215 4.16427 0
65.9458 2.02546 0
67.214 2.02107 0
68.4746 -0.126684 0
71.0109 -0.135866 0
71.0266 4.15061 0
68.4899 4.1598 0
69.7428 -0.131237 0
71.0188 2.0074 0
69.7582 4.15524 0
68.4823 2.01659 0
69.7505 2.01203 0
71.0109 -0.135866 0
73.5471 -0.145354 0
73.5634 4.14111 0
71.0266 4.15061 0
72.279 -0.140572 0
73.5553 1.99791 0
72.295 4.1459 0
71.0188 2.0074 0
72.287 2.0027 0
73.5471 -0.145354 0
76.0834 -0.155147 0
76.1002 4.13131 0
73.5634 4.14111 0
74.8152 -0.150213 0
76.0918 1.98812 0
74.8318 4.13625 0
73.5553 1.99791 0
74.8235 1.99305 0
76.0834 -0.155147 0
78.6196 -0.165244 0
78.6369 4.12121 0
76.1002 4.13131 0
77.3515 -0.160158 0
78.6283 1.97802 0
77.3685 4.1263 0
76.0918 1.98812 0
77.36 1.9831 0
78.6196 -0.165244 0
81.1559 -0.175641 0
81.1737 4.1108 0
78.6369 4.12121 0
79.8878 -0.170405 0
81.1648 1.96761 0
79.9053 4.11604 0
78.6283 1.97802 0
79.8966 1.97285 0
81.1559 -0.175641 0
83.6922 -0.186339 0
83.7105 4.1001 0
81.1737 4.1108 0
82.4241 -0.180953 0
83.7014 1.95691 0
82.4421 4.10549 0
81.1648 1.96761 0
82.4331 1.9623 0
83.6922 -0.186339 0
86.2285 -0.197334 0
86.2473 4.0891 0
83.7105 4.1001 0
84.9603 -0.191799 0
86.2379 1.94591 0
84.9789 4.09464 0
83.7014 1.95691 0
84.9696 1.95145 0
86.2285 -0.197334 0
88.7648 -0.208625 0
88.7841 4.0778 0
86.2473 4.0891 0
87.4966 -0.202942 0
88.7744 1.93462 0
87.5157 4.08349 0
86.2379 1.94591 0
87.5062 1.9403 0
88.7648 -0.208625 0
91.3011 -0.22021 0
91.3209 4.06621 0
88.7841 4.0778 0
90.0329 -0.214381 0
91.311 1.92303 0
90.0525 4.07204 0
88.7744 1.93462 0
90.0427 1.92886 0
91.3011 -0.22021 0
93.8374 -0.232087 0
93.8577 4.05432 0
91.3209 4.06621 0
92.5693 -0.226112 0
93.8476 1.91115 0
92.5893 4.0603 0
91.311 1.92303 0
92.5793 1.91713 0
93.8374 -0.232087 0
96.3737 -0.244255 0
96.3945 4.04215 0
93.8577 4.05432 0
95.1056 -0.238135 0
96.3841 1.89898 0
95.1261 4.04827 0
93.8476 1.91115 0
95.1159 1.9051 0
96.3737 -0.244255 0
98.9101 -0.256711 0
98.9313 4.02969 0
96.3945 4.04215 0
97.6419 -0.250447 0
98.9207 1.88652 0
97.6629 4.03595 0
96.3841 1.89898 0
97.6524 1.89278 0
98.9101 -0.256711 0
101.446 -0.269455 0
101.468 4.01694 0
98.9313 4.02969 0
100.178 -0.263047 0
101.457 1.87377 0
100.2 4.02335 0
98.9207 1.88652 0
100.189 1.88018 0
101.446 -0.269455 0
103.983 -0.282483 0
104.005 4.0039 0
101.468 4.01694 0
102.715 -0.275933 0
103.994 1.86074 0
102.737 4.01045 0
101.457 1.87377 0
102.726 1.86729 0
103.983 -0.282483 0
106.519 -0.295795 0
106.542 3.99058 0
104.005 4.0039 0
105.251 -0.289104 0
106.531 1.84742 0
105.273 3.99728 0
103.994 1.86074 0
105.262 1.85412 0
106.519 -0.295795 0
109.056 -0.309388 0
109.079 3.97698 0
106.542 3.99058 0
107.787 -0.302556 0
109.067 1.83383 0
107.81 3.98382 0
106.531 1.84742 0
107.799 1.84066 0
109.056 -0.309388 0
111.592 -0.323261 0
111.616 3.9631 0
109.079 3.97698 0
110.324 -0.316289 0
111.604 1.81995 0
110.347 3.97008 0
109.067 1.83383 0
110.335 1.82692 0
111.592 -0.323261 0
114.128 -0.337411 0
114.152 3.94894 0
111.616 3.9631 0
112.86 -0.330301 0
114.14 1.8058 0
112.884 3.95606 0
111.604 1.81995 0
112.872 1.81291 0
114.128 -0.337411 0
116.665 -0.351838 0
116.689 3.93451 0
114.152 3.94894 0
115.397 -0.34459 0
116.677 1.79137 0
115.421 3.94176 0
114.14 1.8058 0
115.409 1.79862 0
116.665 -0.351838 0
119.201 -0.366538 0
119.226 3.9198 0
116.689 3.93451 0
117.933 -0.359154 0
119.214 1.77666 0
117.958 3.92719 0
116.677 1.79137 0
117.945 1.78405 0
119.201 -0.366538 0
121.738 -0.381511 0
121.763 3.90482 0
119.226 3.9198 0
120.469 -0.373991 0
121.75 1.76168 0
120.495 3.91235 0
119.214 1.77666 0
120.482 1.76921 0
121.738 -0.381511 0
124.274 -0.396755 0
124.3 3.88957 0
121.763 3.90482 0
123.006 -0.389099 0
124.287 1.74644 0
123.031 3.89723 0
121.75 1.76168 0
123.019 1.75409 0
124.274 -0.396755 0
126.81 -0.412267 0
126.837 3.87405 0
124.3 3.88957 0
125.542 -0.404477 0
126.824 1.73092 0
125.568 3.88184 0
124.287 1.74644 0
125.555 1.73871 0
126.81 -0.412267 0
129.347 -0.428046 0
129.374 3.85826 0
126.837 3.87405 0
128.079 -0.420123 0
129.36 1.71514 0
128.105 3.86619 0
126.824 1.73092 0
128.092 1.72306 0
129.347 -0.428046 0
131.883 -0.44409 0
131.911 3.84221 0
129.374 3.85826 0
130.615 -0.436035 0
131.897 1.69909 0
130.642 3.85027 0
129.36 1.71514 0
130.629 1.70715 0
131.883 -0.44409 0
134.42 -0.460398 0
134.448 3.8259 0
131.911 3.84221 0
133.152 -0.452211 0
134.434 1.68278 0
133.179 3.83409 0
131.897 1.69909 0
133.165 1.69097 0
134.42 -0.460398 0
136.956 -0.476967 0
136.984 3.80932 0
134.448 3.8259 0
135.688 -0.46865 0
136.97 1.6662 0
135.716 3.81764 0
134.434 1.68278 0
135.702 1.67452 0
136.956 -0.476967 0
139.493 -0.493795 0
139.521 3.79248 0
136.984 3.80932 0
138.225 -0.485349 0
139.507 1.64937 0
138.253 3.80094 0
136.97 1.6662 0
138.239 1.65782 0
139.493 -0.493795 0
142.029 -0.510882 0
142.058 3.77539 0
139.521 3.79248 0
140.761 -0.502307 0
142.044 1.63228 0
140.79 3.78397 0
139.507 1.64937 0
140.775 1.64086 0
142.029 -0.510882 0
144.566 -0.528225 0
144.595 3.75804 0
142.058 3.77539 0
143.297 -0.519521 0
144.581 1.61494 0
143.327 3.76675 0
142.044 1.63228 0
143.312 1.62364 0
144.566 -0.528225 0
147.102 -0.545821 0
147.132 3.74044 0
144.595 3.75804 0
145.834 -0.536991 0
147.117 1.59733 0
145.864 3.74927 0
144.581 1.61494 0
145.849 1.60617 0
147.102 -0.545821 0
149.639 -0.563671 0
149.669 3.72258 0
147.132 3.74044 0
148.371 -0.554714 0
[...]
    <PointData>
      <DataArray type="Float64" NumberOfComponents="3" Name="Displacement" format="ascii">
0 0 0
-0.00230763 -0.00115192 -0.00115192
-0.00137561 -0.000389373 -0.000389373
0 0 0
-0.00125558 -0.000717984 -0.000717984
-0.00173784 -0.000696269 -0.000696269
-0.000667524 -0.000139581 -0.000139581
0 0 0
-0.000828841 -0.000306873 -0.000306873
-0.00230763 -0.00115192 -0.00115192
-0.00430437 -0.00200091 -0.00200091
-0.00286504 -0.00112416 -0.00112416
-0.00137561 -0.000389373 -0.000389373
-0.00330895 -0.00156038 -0.00156038
-0.00354844 -0.00151811 -0.00151811
-0.00211324 -0.00072128 -0.00072128
-0.00173784 -0.000696269 -0.000696269
-0.00264825 -0.0010948 -0.0010948
-0.00430437 -0.00200091 -0.00200091
-0.00631855 -0.00302514 -0.00302514
-0.00436789 -0.00213371 -0.00213371
-0.00286504 -0.00112416 -0.00112416
-0.00530791 -0.00248303 -0.00248303
-0.00533248 -0.0025458 -0.0025458
-0.00361736 -0.00159341 -0.00159341
-0.00354844 -0.00151811 -0.00151811
-0.00444279 -0.00199849 -0.00199849
-0.00631855 -0.00302514 -0.00302514
-0.00834914 -0.00434302 -0.00434302
-0.0058632 -0.00344854 -0.00344854
-0.00436789 -0.00213371 -0.00213371
-0.00733238 -0.00364427 -0.00364427
-0.00710117 -0.00386065 -0.00386065
-0.00511685 -0.00275118 -0.00275118
-0.00533248 -0.0025458 -0.0025458
-0.0062181 -0.00316461 -0.00316461
-0.00834914 -0.00434302 -0.00434302
-0.0103905 -0.00598178 -0.00598178
-0.0073458 -0.00509042 -0.00509042
-0.0058632 -0.00344854 -0.00344854
-0.00936904 -0.00512117 -0.00512117
-0.00886379 -0.00550128 -0.00550128
-0.006606 -0.00422767 -0.00422767
-0.00710117 -0.00386065 -0.00386065
-0.0079831 -0.00463904 -0.00463904
-0.0103905 -0.00598178 -0.00598178
-0.0124325 -0.00795984 -0.00795984
-0.00881866 -0.00707195 -0.00707195
-0.0073458 -0.00509042 -0.00509042
-0.0114117 -0.00692797 -0.00692797
-0.0106205 -0.00748001 -0.00748001
-0.00808336 -0.00603837 -0.00603837
-0.00886379 -0.00550128 -0.00550128
-0.00974289 -0.006448 -0.006448
-0.0124325 -0.00795984 -0.00795984
-0.0144716 -0.0102797 -0.0102797
-0.0102824 -0.00939669 -0.00939669
-0.00881866 -0.00707195 -0.00707195
-0.0134526 -0.00907694 -0.00907694
-0.0123711 -0.00980214 -0.00980214
-0.00955161 -0.00819133 -0.00819133
-0.0106205 -0.00748001 -0.00748001
-0.0114966 -0.00859803 -0.00859803
-0.0144716 -0.0102797 -0.0102797
-0.0165041 -0.0129437 -0.0129437
-0.0117382 -0.0120656 -0.0120656
-0.0102824 -0.00939669 -0.00939669
-0.0154888 -0.0115687 -0.0115687
-0.0141146 -0.0124683 -0.0124683
-0.0110113 -0.0106882 -0.0106882
-0.0123711 -0.00980214 -0.00980214
-0.0132438 -0.0110923 -0.0110923
-0.0165041 -0.0129437 -0.0129437
-0.0185285 -0.0159505 -0.0159505
-0.0131863 -0.0150777 -0.0150777
-0.0117382 -0.0120656 -0.0120656
-0.0175174 -0.0144043 -0.0144043
-0.0158503 -0.0154777 -0.0154777
-0.0124632 -0.0135288 -0.0135288
-0.0141146 -0.0124683 -0.0124683
-0.0149834 -0.0139302 -0.0139302
-0.0185285 -0.0159505 -0.0159505
-0.0205435 -0.0192987 -0.0192987
-0.014627 -0.0184313 -0.0184313
-0.0131863 -0.0150777 -0.0150777
-0.0195372 -0.017582 -0.017582
-0.017578 -0.0188288 -0.0188288
-0.0139076 -0.0167119 -0.0167119
-0.0158503 -0.0154777 -0.0154777
-0.0167152 -0.0171107 -0.0171107
-0.0205435 -0.0192987 -0.0192987
-0.0225488 -0.0229867 -0.0229867
-0.0160605 -0.0221247 -0.0221247
-0.014627 -0.0184313 -0.0184313
-0.0215474 -0.0211004 -0.0211004
-0.0192972 -0.0225196 -0.0225196
-0.0153446 -0.0202357 -0.0202357
-0.017578 -0.0188288 -0.0188288
-0.0184386 -0.0206318 -0.0206318
-0.0225488 -0.0229867 -0.0229867
-0.0245441 -0.0270124 -0.0270124
-0.0174867 -0.0261561 -0.0261561
-0.0160605 -0.0221247 -0.0221247
-0.0235477 -0.0249574 -0.0249574
-0.0210079 -0.0265483 -0.0265483
-0.0167745 -0.0240983 -0.0240983
-0.0192972 -0.0225196 -0.0225196
-0.0201536 -0.0244918 -0.0244918
-0.0245441 -0.0270124 -0.0270124
-0.0265292 -0.0313741 -0.0313741
-0.0189059 -0.0305234 -0.0305234
-0.0174867 -0.0261561 -0.0261561
-0.0255379 -0.0291514 -0.0291514
-0.02271 -0.030913 -0.030913
-0.0181972 -0.0282979 -0.0282979
-0.0210079 -0.0265483 -0.0265483
-0.02186 -0.0286888 -0.0286888
-0.0265292 -0.0313741 -0.0313741
-0.0285043 -0.0360699 -0.0360699
-0.020318 -0.0352249 -0.0352249
-0.0189059 -0.0305234 -0.0305234
-0.027518 -0.0336804 -0.0336804
-0.0244035 -0.0356118 -0.0356118
-0.0196128 -0.0328325 -0.0328325
-0.02271 -0.030913 -0.030913
-0.0235578 -0.0332208 -0.0332208
-0.0285043 -0.0360699 -0.0360699
-0.0304692 -0.0410979 -0.0410979
-0.021723 -0.0402587 -0.0402587
-0.020318 -0.0352249 -0.0352249
-0.029488 -0.0385425 -0.0385425
-0.0260885 -0.0406429 -0.0406429
-0.0210213 -0.0377003 -0.0377003
-0.0244035 -0.0356118 -0.0356118
-0.0252471 -0.0380859 -0.0380859
-0.0304692 -0.0410979 -0.0410979
-0.0324241 -0.0464563 -0.0464563
-0.023121 -0.0456229 -0.0456229
-0.021723 -0.0402587 -0.0402587
-0.0314479 -0.0437359 -0.0437359
-0.0277649 -0.0460044 -0.0460044
-0.0224229 -0.0428996 -0.0428996
-0.0260885 -0.0406429 -0.0406429
-0.0269278 -0.0432824 -0.0432824
-0.0324241 -0.0464563 -0.0464563
-0.0343689 -0.0521432 -0.0521432
-0.0245121 -0.0513157 -0.0513157
-0.023121 -0.0456229 -0.0456229
-0.0333977 -0.0492588 -0.0492588
-0.0294328 -0.0516945 -0.0516945
-0.0238174 -0.0484283 -0.0484283
-0.0277649 -0.0460044 -0.0460044
-0.0285999 -0.0488085 -0.0488085
-0.0343689 -0.0521432 -0.0521432
-0.0363037 -0.0581569 -0.0581569
-0.0258962 -0.0573354 -0.0573354
-0.0245121 -0.0513157 -0.0513157
-0.0353375 -0.0551093 -0.0551093
-0.0310923 -0.0577114 -0.0577114
-0.025205 -0.0542848 -0.0542848
-0.0294328 -0.0516945 -0.0516945
-0.0302636 -0.0546622 -0.0546622
-0.0363037 -0.0581569 -0.0581569
-0.0382286 -0.0644956 -0.0644956
-0.0272735 -0.06368 -0.06368
-0.0258962 -0.0573354 -0.0573354
-0.0372674 -0.0612857 -0.0612857
-0.0327434 -0.0640532 -0.0640532
-0.0265857 -0.0604672 -0.0604672
-0.0310923 -0.0577114 -0.0577114
-0.0319189 -0.0608418 -0.0608418
-0.0382286 -0.0644956 -0.0644956
-0.0401435 -0.0711573 -0.0711573
-0.0286439 -0.0703479 -0.0703479
-0.0272735 -0.06368 -0.06368
-0.0391873 -0.0677861 -0.0677861
-0.0343861 -0.0707182 -0.0707182
-0.0279595 -0.0669737 -0.0669737
-0.0327434 -0.0640532 -0.0640532
-0.0335658 -0.0673454 -0.0673454
-0.0401435 -0.0711573 -0.0711573
-0.0420485 -0.0781403 -0.0781403
-0.0300075 -0.0773371 -0.0773371
-0.0286439 -0.0703479 -0.0703479
-0.0410973 -0.0746088 -0.0746088
-0.0360204 -0.0777045 -0.0777045
-0.0293265 -0.0738024 -0.0738024
-0.0343861 -0.0707182 -0.0707182
-0.0352043 -0.0741713 -0.0741713
-0.0420485 -0.0781403 -0.0781403
-0.0439438 -0.0854429 -0.0854429
-0.0313643 -0.0846458 -0.0846458
-0.0300075 -0.0773371 -0.0773371
-0.0429974 -0.0817518 -0.0817518
-0.0376464 -0.0850103 -0.0850103
-0.0306867 -0.0809516 -0.0809516
-0.0360204 -0.0777045 -0.0777045
-0.0368344 -0.0813176 -0.0813176
-0.0439438 -0.0854429 -0.0854429
-0.0458292 -0.0930631 -0.0930631
-0.0327144 -0.0922723 -0.0922723
-0.0313643 -0.0846458 -0.0846458
-0.0448877 -0.0892134 -0.0892134
-0.0392641 -0.0926339 -0.0926339
-0.0320402 -0.0884194 -0.0884194
-0.0376464 -0.0850103 -0.0850103
-0.0384563 -0.0887825 -0.0887825
-0.0458292 -0.0930631 -0.0930631
-0.0477048 -0.100999 -0.100999
-0.0340578 -0.100215 -0.100215
-0.0327144 -0.0922723 -0.0922723
-0.0467682 -0.0969918 -0.0969918
-0.0408736 -0.100573 -0.100573
-0.0333869 -0.0962041 -0.0962041
-0.0392641 -0.0926339 -0.0926339
-0.0400699 -0.0965642 -0.0965642
-0.0477048 -0.100999 -0.100999
-0.0495706 -0.109249 -0.109249
-0.0353944 -0.108471 -0.108471
-0.0340578 -0.100215 -0.100215
-0.0486389 -0.105085 -0.105085
-0.0424749 -0.108827 -0.108827
-0.0347269 -0.104304 -0.104304
-0.0408736 -0.100573 -0.100573
-0.0416753 -0.104661 -0.104661
-0.0495706 -0.109249 -0.109249
-0.0514268 -0.117812 -0.117812
-0.0367245 -0.11704 -0.11704
-0.0353944 -0.108471 -0.108471
-0.0504999 -0.113492 -0.113492
-0.044068 -0.117393 -0.117393
-0.0360603 -0.112717 -0.112717
-0.0424749 -0.108827 -0.108827
-0.0432725 -0.113071 -0.113071
-0.0514268 -0.117812 -0.117812
-0.0532733 -0.126684 -0.126684
-0.0380479 -0.125919 -0.125919
-0.0367245 -0.11704 -0.11704
-0.0523513 -0.122209 -0.122209
-0.0456529 -0.126269 -0.126269
-0.037387 -0.121441 -0.121441
-0.044068 -0.117393 -0.117393
-0.0448615 -0.121792 -0.121792
-0.0532733 -0.126684 -0.126684
-0.0551101 -0.135866 -0.135866
-0.0393648 -0.135107 -0.135107
-0.0380479 -0.125919 -0.125919
-0.0541929 -0.131237 -0.131237
-0.0472298 -0.135454 -0.135454
-0.0387072 -0.130475 -0.130475
-0.0456529 -0.126269 -0.126269
-0.0464424 -0.130823 -0.130823
-0.0551101 -0.135866 -0.135866
-0.0569373 -0.145354 -0.145354
-0.0406751 -0.144602 -0.144602
-0.0393648 -0.135107 -0.135107
-0.0560249 -0.140572 -0.140572
-0.0487986 -0.144945 -0.144945
-0.0400208 -0.139816 -0.139816
-0.0472298 -0.135454 -0.135454
-0.0480152 -0.140161 -0.140161
-0.0569373 -0.145354 -0.145354
-0.058755 -0.155147 -0.155147
-0.0419789 -0.154402 -0.154402
-0.0406751 -0.144602 -0.144602
-0.0578473 -0.150213 -0.150213
-0.0503593 -0.154742 -0.154742
-0.0413278 -0.149464 -0.149464
-0.0487986 -0.144945 -0.144945
-0.0495799 -0.149806 -0.149806
-0.058755 -0.155147 -0.155147
-0.060563 -0.165244 -0.165244
-0.0432762 -0.164505 -0.164505
-0.0419789 -0.154402 -0.154402
-0.0596602 -0.160158 -0.160158
-0.051912 -0.164842 -0.164842
-0.0426284 -0.159416 -0.159416
-0.0503593 -0.154742 -0.154742
-0.0511366 -0.159754 -0.159754
-0.060563 -0.165244 -0.165244
-0.0623616 -0.175641 -0.175641
-0.0445671 -0.174909 -0.174909
-0.0432762 -0.164505 -0.164505
-0.0614635 -0.170405 -0.170405
-0.0534566 -0.175243 -0.175243
-0.0439224 -0.16967 -0.16967
-0.051912 -0.164842 -0.164842
-0.0526853 -0.170005 -0.170005
-0.0623616 -0.175641 -0.175641
-0.0641506 -0.186339 -0.186339
-0.0458515 -0.185613 -0.185613
-0.0445671 -0.174909 -0.174909
-0.0632573 -0.180953 -0.180953
-0.0549934 -0.185944 -0.185944
-0.0452101 -0.180224 -0.180224
-0.0534566 -0.175243 -0.175243
-0.054226 -0.180556 -0.180556
-0.0641506 -0.186339 -0.186339
-0.0659302 -0.197334 -0.197334
-0.0471295 -0.196615 -0.196615
-0.0458515 -0.185613 -0.185613
-0.0650416 -0.191799 -0.191799
-0.0565222 -0.196943 -0.196943
-0.0464913 -0.191077 -0.191077
-0.0549934 -0.185944 -0.185944
-0.0557588 -0.191406 -0.191406
-0.0659302 -0.197334 -0.197334
-0.0677003 -0.208625 -0.208625
-0.0484011 -0.207913 -0.207913
-0.0471295 -0.196615 -0.196615
-0.0668164 -0.202942 -0.202942
-0.058043 -0.208237 -0.208237
-0.0477661 -0.202227 -0.202227
-0.0565222 -0.196943 -0.196943
-0.0572836 -0.202553 -0.202553
-0.0677003 -0.208625 -0.208625
-0.069461 -0.22021 -0.22021
-0.0496664 -0.219505 -0.219505
-0.0484011 -0.207913 -0.207913
-0.0685818 -0.214381 -0.214381
-0.059556 -0.219826 -0.219826
-0.0490346 -0.213672 -0.213672
-0.058043 -0.208237 -0.208237
-0.0588005 -0.213995 -0.213995
-0.069461 -0.22021 -0.22021
-0.0712123 -0.232087 -0.232087
-0.0509254 -0.231389 -0.231389
-0.0496664 -0.219505 -0.219505
-0.0703379 -0.226112 -0.226112
-0.0610612 -0.231707 -0.231707
-0.0502967 -0.225411 -0.225411
-0.059556 -0.219826 -0.219826
-0.0603096 -0.22573 -0.22573
-0.0712123 -0.232087 -0.232087
-0.0729543 -0.244255 -0.244255
-0.052178 -0.243564 -0.243564
-0.0509254 -0.231389 -0.231389
-0.0720845 -0.238135 -0.238135
-0.0625585 -0.243879 -0.243879
-0.0515525 -0.237441 -0.237441
-0.0610612 -0.231707 -0.231707
-0.0618108 -0.237757 -0.237757
-0.0729543 -0.244255 -0.244255
-0.0746869 -0.256711 -0.256711
-0.0534244 -0.256028 -0.256028
-0.052178 -0.243564 -0.243564
-0.0738217 -0.250447 -0.250447
-0.064048 -0.256339 -0.256339
-0.052802 -0.24976 -0.24976
-0.0625585 -0.243879 -0.243879
-0.0633042 -0.250073 -0.250073
-0.0746869 -0.256711 -0.256711
-0.0764102 -0.269455 -0.269455
-0.0546646 -0.268778 -0.268778
-0.0534244 -0.256028 -0.256028
-0.0755497 -0.263047 -0.263047
-0.0655297 -0.269086 -0.269086
-0.0540453 -0.262367 -0.262367
-0.064048 -0.256339 -0.256339
-0.0647898 -0.262677 -0.262677
-0.0764102 -0.269455 -0.269455
-0.0781241 -0.282483 -0.282483
-0.0558985 -0.281814 -0.281814
-0.0546646 -0.268778 -0.268778
-0.0772683 -0.275933 -0.275933
-0.0670036 -0.282118 -0.282118
-0.0552823 -0.275261 -0.275261
-0.0655297 -0.269086 -0.269086
-0.0662676 -0.275567 -0.275567
-0.0781241 -0.282483 -0.282483
-0.0798288 -0.295795 -0.295795
-0.0571262 -0.295133 -0.295133
-0.0558985 -0.281814 -0.281814
-0.0789776 -0.289104 -0.289104
-0.0684698 -0.295434 -0.295434
-0.0565131 -0.288438 -0.288438
-0.0670036 -0.282118 -0.282118
-0.0677377 -0.288741 -0.288741
-0.0798288 -0.295795 -0.295795
-0.0815243 -0.309388 -0.309388
-0.0583477 -0.308733 -0.308733
-0.0571262 -0.295133 -0.295133
-0.0806777 -0.302556 -0.302556
-0.0699283 -0.309031 -0.309031
-0.0577377 -0.301898 -0.301898
-0.0684698 -0.295434 -0.295434
-0.0692 -0.302197 -0.302197
-0.0815243 -0.309388 -0.309388
-0.0832105 -0.323261 -0.323261
-0.059563 -0.322613 -0.322613
-0.0583477 -0.308733 -0.308733
-0.0823685 -0.316289 -0.316289
-0.0713791 -0.322907 -0.322907
-0.0589561 -0.315638 -0.315638
-0.0699283 -0.309031 -0.309031
-0.0706546 -0.315934 -0.315934
-0.0832105 -0.323261 -0.323261
-0.0848875 -0.337411 -0.337411
-0.0607723 -0.336771 -0.336771
-0.059563 -0.322613 -0.322613
-0.0840502 -0.330301 -0.330301
-0.0728222 -0.337061 -0.337061
-0.0601684 -0.329657 -0.329657
-0.0713791 -0.322907 -0.322907
-0.0721016 -0.32995 -0.32995
-0.0848875 -0.337411 -0.337411
-0.0865553 -0.351838 -0.351838
-0.0619754 -0.351204 -0.351204
-0.0607723 -0.336771 -0.336771
-0.0857226 -0.34459 -0.34459
-0.0742576 -0.351492 -0.351492
-0.0613746 -0.343953 -0.343953
-0.0728222 -0.337061 -0.337061
-0.0735409 -0.344242 -0.344242
-0.0865553 -0.351838 -0.351838
-0.088214 -0.366538 -0.366538
-0.0631723 -0.365912 -0.365912
-0.0619754 -0.351204 -0.351204
-0.0873858 -0.359154 -0.359154
-0.0756854 -0.366196 -0.366196
-0.0625746 -0.358524 -0.358524
-0.0742576 -0.351492 -0.351492
-0.0749725 -0.35881 -0.35881
-0.088214 -0.366538 -0.366538
-0.0898635 -0.381511 -0.381511
-0.0643633 -0.380893 -0.380893
-0.0631723 -0.365912 -0.365912
-0.0890399 -0.373991 -0.373991
-0.0771056 -0.381173 -0.381173
-0.0637686 -0.373368 -0.373368
-0.0756854 -0.366196 -0.366196
-0.0763965 -0.373651 -0.373651
-0.0898635 -0.381511 -0.381511
-0.0915038 -0.396755 -0.396755
-0.0655481 -0.396143 -0.396143
-0.0643633 -0.380893 -0.380893
-0.0906848 -0.389099 -0.389099
-0.0785182 -0.39642 -0.39642
-0.0649564 -0.388484 -0.388484
-0.0771056 -0.381173 -0.381173
-0.0778129 -0.388763 -0.388763
-0.0915038 -0.396755 -0.396755
-0.0931351 -0.412267 -0.412267
-0.0667269 -0.411663 -0.411663
-0.0655481 -0.396143 -0.396143
-0.0923206 -0.404477 -0.404477
-0.0799233 -0.411936 -0.411936
-0.0661382 -0.40387 -0.40387
-0.0785182 -0.39642 -0.39642
-0.0792217 -0.404145 -0.404145
-0.0931351 -0.412267 -0.412267
-0.0947572 -0.428046 -0.428046
-0.0678997 -0.42745 -0.42745
-0.0667269 -0.411663 -0.411663
-0.0939473 -0.420123 -0.420123
-0.0813207 -0.42772 -0.42772
-0.067314 -0.419523 -0.419523
-0.0799233 -0.411936 -0.411936
-0.0806229 -0.419795 -0.419795
-0.0947572 -0.428046 -0.428046
-0.0963703 -0.44409 -0.44409
-0.0690664 -0.443501 -0.443501
-0.0678997 -0.42745 -0.42745
-0.0955649 -0.436035 -0.436035
-0.0827106 -0.443768 -0.443768
-0.0684838 -0.435443 -0.435443
-0.0813207 -0.42772 -0.42772
-0.0820166 -0.435711 -0.435711
-0.0963703 -0.44409 -0.44409
-0.0979743 -0.460398 -0.460398
-0.0702272 -0.459817 -0.459817
-0.0690664 -0.443501 -0.443501
-0.0971734 -0.452211 -0.452211
-0.084093 -0.460079 -0.460079
-0.0696475 -0.451626 -0.451626
-0.0827106 -0.443768 -0.443768
-0.0834028 -0.451891 -0.451891
-0.0979743 -0.460398 -0.460398
-0.0995692 -0.476967 -0.476967
-0.0713819 -0.476393 -0.476393
-0.0702272 -0.459817 -0.459817
-0.0987729 -0.46865 -0.46865
-0.0854679 -0.476652 -0.476652
-0.0708053 -0.468072 -0.468072
-0.084093 -0.460079 -0.460079
-0.0847814 -0.468333 -0.468333
-0.0995692 -0.476967 -0.476967
-0.101155 -0.493795 -0.493795
-0.0725307 -0.493229 -0.493229
-0.0713819 -0.476393 -0.476393
-0.100363 -0.485349 -0.485349
-0.0868352 -0.493485 -0.493485
-0.0719571 -0.484779 -0.484779
-0.0854679 -0.476652 -0.476652
-0.0861525 -0.485036 -0.485036
-0.101155 -0.493795 -0.493795
-0.102732 -0.510882 -0.510882
-0.0736736 -0.510323 -0.510323
-0.0725307 -0.493229 -0.493229
-0.101945 -0.502307 -0.502307
-0.0881951 -0.510575 -0.510575
-0.0731029 -0.501744 -0.501744
-0.0868352 -0.493485 -0.493485
-0.0875161 -0.501998 -0.501998
-0.102732 -0.510882 -0.510882
-0.1043 -0.528225 -0.528225
-0.0748105 -0.527674 -0.527674
-0.0736736 -0.510323 -0.510323
-0.103517 -0.519521 -0.519521
-0.0895475 -0.527922 -0.527922
-0.0742428 -0.518967 -0.518967
-0.0881951 -0.510575 -0.510575
-0.0888722 -0.519217 -0.519217
-0.1043 -0.528225 -0.528225
-0.105859 -0.545821 -0.545821
-0.0759415 -0.545278 -0.545278
-0.0748105 -0.527674 -0.527674
-0.105081 -0.536991 -0.536991
-0.0908924 -0.545523 -0.545523
-0.0753768 -0.536444 -0.536444
-0.0895475 -0.527922 -0.527922
-0.0902209 -0.536691 -0.536691
-0.105859 -0.545821 -0.545821
-0.107409 -0.563671 -0.563671
-0.0770666 -0.563135 -0.563135
-0.0759415 -0.545278 -0.545278
-0.106635 -0.554714 -0.554714
-0.0922299 -0.563376 -0.563376
-0.0765048 -0.554175 -0.554175
-0.0908924 -0.545523 -0.545523
-0.0915621 -0.554418 -0.554418
-0.107409 -0.563671 -0.563671
-0.10895 -0.58177 -0.58177
-0.0781858 -0.581242 -0.581242
-0.0770666 -0.563135 -0.563135
-0.10818 -0.572689 -0.572689
-0.09356 -0.58148 -0.58148
-0.0776269 -0.572157 -0.572157
-0.0922299 -0.563376 -0.563376
-0.0928959 -0.572397 -0.572397
-0.10895 -0.58177 -0.58177
-0.110482 -0.600119 -0.600119
-0.0792991 -0.599598 -0.599598
-0.0781858 -0.581242 -0.581242
-0.109717 -0.590914 -0.590914
-0.0948826 -0.599832 -0.599832
-0.0787432 -0.590389 -0.590389
-0.09356 -0.58148 -0.58148
-0.0942222 -0.590625 -0.590625
-0.110482 -0.600119 -0.600119
-0.112005 -0.618714 -0.618714
-0.0804065 -0.618202 -0.618202
-0.0792991 -0.599598 -0.599598
-0.111244 -0.609386 -0.609386
-0.0961979 -0.618432 -0.618432
-0.0798535 -0.608869 -0.608869
-0.0948826 -0.599832 -0.599832
-0.0955412 -0.609101 -0.609101
-0.112005 -0.618714 -0.618714
-0.113519 -0.637555 -0.637555
-0.081508 -0.63705 -0.63705
-0.0804065 -0.618202 -0.618202
-0.112763 -0.628104 -0.628104
-0.0975057 -0.637277 -0.637277
-0.080958 -0.627595 -0.627595
-0.0961979 -0.618432 -0.618432
-0.0968527 -0.627824 -0.627824
-0.113519 -0.637555 -0.637555
-0.115024 -0.656639 -0.656639
-0.0826037 -0.656142 -0.656142
-0.081508 -0.63705 -0.63705
-0.114273 -0.647067 -0.647067
-0.0988061 -0.656365 -0.656365
-0.0820566 -0.646566 -0.646566
-0.0975057 -0.637277 -0.637277
-0.0981568 -0.64679 -0.64679
-0.115024 -0.656639 -0.656639
-0.11652 -0.675965 -0.675965
-0.0836936 -0.675475 -0.675475
-0.0826037 -0.656142 -0.656142
-0.115773 -0.666272 -0.666272
-0.100099 -0.675694 -0.675694
-0.0831494 -0.665778 -0.665778
-0.0988061 -0.656365 -0.656365
-0.0994536 -0.665999 -0.665999
-0.11652 -0.675965 -0.675965
-0.118008 -0.69553 -0.69553
-0.0847776 -0.695048 -0.695048
-0.0836936 -0.675475 -0.675475
-0.117265 -0.685717 -0.685717
-0.101385 -0.695264 -0.695264
-0.0842363 -0.685232 -0.685232
-0.100099 -0.675694 -0.675694
-0.100743 -0.685449 -0.685449
-0.118008 -0.69553 -0.69553
-0.119486 -0.715333 -0.715333
-0.0858558 -0.714859 -0.714859
-0.0847776 -0.695048 -0.695048
-0.118748 -0.705402 -0.705402
-0.102663 -0.715071 -0.715071
-0.0853174 -0.704924 -0.704924
-0.101385 -0.695264 -0.695264
-0.102025 -0.705138 -0.705138
-0.119486 -0.715333 -0.715333
-0.120956 -0.735372 -0.735372
-0.0869281 -0.734906 -0.734906
-0.0858558 -0.714859 -0.714859
-0.120222 -0.725323 -0.725323
-0.103934 -0.735114 -0.735114
-0.0863927 -0.724853 -0.724853
-0.102663 -0.715071 -0.715071
-0.1033 -0.725063 -0.725063
-0.120956 -0.735372 -0.735372
-0.122416 -0.755646 -0.755646
-0.0879947 -0.755187 -0.755187
-0.0869281 -0.734906 -0.734906
-0.121687 -0.74548 -0.74548
-0.105198 -0.755392 -0.755392
-0.0874621 -0.745018 -0.745018
-0.103934 -0.735114 -0.735114
-0.104567 -0.745224 -0.745224
-0.122416 -0.755646 -0.755646
-0.123868 -0.776152 -0.776152
-0.0890554 -0.775701 -0.775701
-0.0879947 -0.755187 -0.755187
-0.123143 -0.76587 -0.76587
-0.106454 -0.775902 -0.775902
-0.0885258 -0.765415 -0.765415
-0.105198 -0.755392 -0.755392
-0.105827 -0.765618 -0.765618
-0.123868 -0.776152 -0.776152