<?xml version="1.0"?>
<VTKFile type="UnstructuredGrid">
  <UnstructuredGrid>
  <Piece NumberOfPoints="12411"  NumberOfCells="1379">
    <Points>
      <DataArray type="Float64" NumberOfComponents="3" format="ascii">
0 0 0
2.5373 -0.000384185 0
2.53761 4.28558 0
0 4.28571 0
1.26862 -0.000239408 0
2.53749 2.14262 0
1.26881 4.28567 0
0 2.14286 0
1.26876 2.14275 0
2.5373 -0.000384185 0
5.07471 -0.000667447 0
5.07519 4.28534 0
2.53761 4.28558 0
3.806 -0.000520472 0
5.07496 2.14235 0
3.8064 4.28547 0
2.53749 2.14262 0
3.80622 2.14249 0
5.07471 -0.000667447 0
7.61211 -0.00100914 0
7.61276 4.285 0
5.07519 4.28534 0
6.34341 -0.000828291 0
7.61244 2.14201 0
6.34397 4.28518 0
5.07496 2.14235 0
6.3437 2.14219 0
7.61211 -0.00100914 0
10.1495 -0.00144873 0
10.1503 4.28456 0
7.61276 4.285 0
8.88081 -0.00121566 0
10.1499 2.14157 0
8.88154 4.2848 0
7.61244 2.14201 0
8.88118 2.1418 0
10.1495 -0.00144873 0
12.6869 -0.00199531 0
12.6879 4.28402 0
10.1503 4.28456 0
11.4182 -0.00170827 0
12.6874 2.14102 0
11.4191 4.2843 0
10.1499 2.14157 0
11.4187 2.14131 0
12.6869 -0.00199531 0
15.2243 -0.00265503 0
15.2255 4.28336 0
12.6879 4.28402 0
13.9556 -0.00231089 0
15.2249 2.14036 0
13.9567 4.2837 0
12.6874 2.14102 0
13.9561 2.14071 0
15.2243 -0.00265503 0
17.7617 -0.00342874 0
17.7631 4.28258 0
15.2255 4.28336 0
16.493 -0.0030276 0
17.7624 2.13959 0
16.4943 4.28298 0
15.2249 2.14036 0
16.4936 2.13999 0
17.7617 -0.00342874 0
20.2991 -0.00431719 0
20.3007 4.28169 0
17.7631 4.28258 0
19.0304 -0.00385863 0
20.2999 2.1387 0
19.0319 4.28215 0
17.7624 2.13959 0
19.0311 2.13916 0
20.2991 -0.00431719 0
22.8365 -0.00531994 0
22.8382 4.28069 0
20.3007 4.28169 0
21.5678 -0.0048043 0
22.8374 2.1377 0
21.5695 4.2812 0
20.2999 2.1387 0
21.5686 2.13821 0
22.8365 -0.00531994 0
25.3739 -0.00643659 0
25.3758 4.27957 0
22.8382 4.28069 0
24.1052 -0.00586406 0
25.3749 2.13658 0
24.107 4.28014 0
22.8374 2.1377 0
24.1061 2.13715 0
25.3739 -0.00643659 0
27.9113 -0.00766651 0
27.9134 4.27834 0
25.3758 4.27957 0
26.6426 -0.00703743 0
27.9124 2.13535 0
26.6446 4.27897 0
25.3749 2.13658 0
26.6436 2.13598 0
27.9113 -0.00766651 0
30.4487 -0.0090091 0
30.451 4.27699 0
27.9134 4.27834 0
29.18 -0.00832376 0
30.4499 2.134 0
29.1822 4.27768 0
27.9124 2.13535 0
29.1811 2.13469 0
30.4487 -0.0090091 0
32.9861 -0.0104637 0
32.9886 4.27554 0
30.451 4.27699 0
31.7174 -0.00972244 0
32.9874 2.13255 0
31.7198 4.27628 0
30.4499 2.134 0
31.7186 2.13329 0
32.9861 -0.0104637 0
35.5235 -0.0120297 0
35.5262 4.27397 0
32.9886 4.27554 0
34.2548 -0.0112328 0
35.5249 2.13098 0
34.2574 4.27477 0
32.9874 2.13255 0
34.2561 2.13178 0
35.5235 -0.0120297 0
38.0609 -0.0137065 0
38.0638 4.27229 0
35.5262 4.27397 0
36.7922 -0.0128543 0
38.0624 2.1293 0
36.795 4.27314 0
35.5249 2.13098 0
36.7936 2.13016 0
38.0609 -0.0137065 0
40.5983 -0.0154935 0
40.6014 4.2705 0
38.0638 4.27229 0
39.3296 -0.0145863 0
40.5999 2.12752 0
39.3326 4.27141 0
38.0624 2.1293 0
39.3311 2.12842 0
40.5983 -0.0154935 0
43.1358 -0.0173901 0
43.139 4.2686 0
40.6014 4.2705 0
41.8671 -0.0164282 0
43.1374 2.12562 0
41.8702 4.26957 0
40.5999 2.12752 0
41.8687 2.12658 0
43.1358 -0.0173901 0
45.6732 -0.0193956 0
45.6767 4.2666 0
43.139 4.2686 0
44.4045 -0.0183793 0
45.6749 2.12361 0
44.4079 4.26761 0
43.1374 2.12562 0
44.4062 2.12463 0
45.6732 -0.0193956 0
48.2106 -0.0215095 0
48.2143 4.26448 0
45.6767 4.2666 0
46.9419 -0.0204391 0
48.2125 2.1215 0
46.9455 4.26555 0
45.6749 2.12361 0
46.9437 2.12257 0
48.2106 -0.0215095 0
50.7481 -0.0237312 0
50.7519 4.26226 0
48.2143 4.26448 0
49.4793 -0.0226069 0
50.75 2.11927 0
49.4831 4.26338 0
48.2125 2.1215 0
49.4812 2.1204 0
50.7481 -0.0237312 0
53.2855 -0.02606 0
53.2895 4.25993 0
50.7519 4.26226 0
52.0168 -0.0248822 0
53.2875 2.11694 0
52.0207 4.2611 0
50.75 2.11927 0
52.0187 2.11812 0
53.2855 -0.02606 0
55.8229 -0.0284953 0
55.8271 4.25749 0
53.2895 4.25993 0
54.5542 -0.0272643 0
55.825 2.11451 0
54.5583 4.25872 0
53.2875 2.11694 0
54.5563 2.11574 0
55.8229 -0.0284953 0
58.3604 -0.0310365 0
58.3648 4.25495 0
55.8271 4.25749 0
57.0917 -0.0297527 0
58.3626 2.11197 0
57.0959 4.25623 0
55.825 2.11451 0
57.0938 2.11325 0
58.3604 -0.0310365 0
60.8978 -0.0336831 0
60.9024 4.2523 0
58.3648 4.25495 0
59.6291 -0.0323467 0
60.9001 2.10932 0
59.6336 4.25363 0
58.3626 2.11197 0
59.6313 2.11066 0
60.8978 -0.0336831 0
63.4353 -0.0364345 0
63.44 4.24954 0
60.9024 4.2523 0
62.1666 -0.0350457 0
63.4376 2.10657 0
62.1712 4.25093 0
60.9001 2.10932 0
62.1689 2.10796 0
63.4353 -0.0364345 0
65.9727 -0.0392899 0
65.9776 4.24669 0
63.44 4.24954 0
64.704 -0.0378492 0
65.9752 2.10371 0
64.7088 4.24813 0
63.4376 2.10657 0
64.7064 2.10515 0
65.9727 -0.0392899 0
68.5102 -0.0422489 0
68.5153 4.24373 0
65.9776 4.24669 0
67.2415 -0.0407565 0
68.5127 2.10075 0
67.2465 4.24522 0
65.9752 2.10371 0
67.244 2.10224 0
68.5102 -0.0422489 0
71.0477 -0.0453107 0
71.0529 4.24066 0
68.5153 4.24373 0
69.7789 -0.043767 0
71.0503 2.09769 0
69.7841 4.24221 0
68.5127 2.10075 0
69.7815 2.09923 0
71.0477 -0.0453107 0
73.5851 -0.0484749 0
73.5905 4.2375 0
71.0529 4.24066 0
72.3164 -0.0468801 0
73.5878 2.09452 0
72.3217 4.23909 0
71.0503 2.09769 0
72.3191 2.09612 0
73.5851 -0.0484749 0
76.1226 -0.0517408 0
76.1282 4.23423 0
73.5905 4.2375 0
74.8539 -0.0500952 0
76.1254 2.09126 0
74.8594 4.23588 0
73.5878 2.09452 0
74.8566 2.0929 0
76.1226 -0.0517408 0
78.6601 -0.0551077 0
78.6658 4.23086 0
76.1282 4.23423 0
77.3913 -0.0534117 0
78.663 2.08789 0
77.397 4.23256 0
76.1254 2.09126 0
77.3942 2.08958 0
78.6601 -0.0551077 0
81.1975 -0.0585752 0
81.2035 4.22739 0
78.6658 4.23086 0
79.9288 -0.056829 0
81.2005 2.08442 0
79.9347 4.22914 0
78.663 2.08789 0
79.9317 2.08617 0
81.1975 -0.0585752 0
83.735 -0.0621426 0
83.7411 4.22382 0
81.2035 4.22739 0
82.4663 -0.0603464 0
83.7381 2.08085 0
82.4723 4.22562 0
81.2005 2.08442 0
82.4693 2.08265 0
83.735 -0.0621426 0
86.2725 -0.0658092 0
86.2788 4.22015 0
83.7411 4.22382 0
85.0038 -0.0639635 0
86.2756 2.07718 0
85.01 4.222 0
83.7381 2.08085 0
85.0069 2.07903 0
86.2725 -0.0658092 0
88.81 -0.0695745 0
88.8164 4.21639 0
86.2788 4.22015 0
87.5413 -0.0676795 0
88.8132 2.07342 0
87.5476 4.21828 0
86.2756 2.07718 0
87.5444 2.07531 0
88.81 -0.0695745 0
91.3475 -0.0734379 0
91.3541 4.21252 0
88.8164 4.21639 0
90.0787 -0.071494 0
91.3508 2.06955 0
90.0853 4.21447 0
88.8132 2.07342 0
90.082 2.0715 0
91.3475 -0.0734379 0
93.885 -0.0773987 0
93.8917 4.20856 0
91.3541 4.21252 0
92.6162 -0.0754061 0
93.8884 2.06559 0
92.6229 4.21055 0
91.3508 2.06955 0
92.6196 2.06758 0
93.885 -0.0773987 0
96.4225 -0.0814564 0
96.4294 4.2045 0
93.8917 4.20856 0
95.1537 -0.0794155 0
96.4259 2.06153 0
95.1606 4.20654 0
93.8884 2.06559 0
95.1572 2.06357 0
96.4225 -0.0814564 0
98.96 -0.0856104 0
98.9671 4.20034 0
96.4294 4.2045 0
97.6912 -0.0835214 0
98.9635 2.05738 0
97.6982 4.20243 0
96.4259 2.06153 0
97.6947 2.05947 0
98.96 -0.0856104 0
101.497 -0.08986 0
101.505 4.19609 0
98.9671 4.20034 0
100.229 -0.0877232 0
101.501 2.05313 0
100.236 4.19823 0
98.9635 2.05738 0
100.232 2.05526 0
101.497 -0.08986 0
104.035 -0.0942046 0
104.042 4.19175 0
101.505 4.19609 0
102.766 -0.0920205 0
104.039 2.04878 0
102.774 4.19393 0
101.501 2.05313 0
102.77 2.05097 0
104.035 -0.0942046 0
106.572 -0.0986437 0
106.58 4.1873 0
104.042 4.19175 0
105.304 -0.0964124 0
106.576 2.04434 0
105.311 4.18954 0
104.039 2.04878 0
105.307 2.04657 0
106.572 -0.0986437 0
109.11 -0.103177 0
109.118 4.18277 0
106.58 4.1873 0
107.841 -0.100898 0
109.114 2.03981 0
107.849 4.18505 0
106.576 2.04434 0
107.845 2.04209 0
109.11 -0.103177 0
111.648 -0.107803 0
111.655 4.17814 0
109.118 4.18277 0
110.379 -0.105478 0
111.651 2.03518 0
110.387 4.18047 0
109.114 2.03981 0
110.383 2.0375 0
111.648 -0.107803 0
114.185 -0.112522 0
114.193 4.17342 0
111.655 4.17814 0
112.916 -0.110151 0
114.189 2.03046 0
112.924 4.17579 0
111.651 2.03518 0
112.92 2.03283 0
114.185 -0.112522 0
116.723 -0.117332 0
116.731 4.16861 0
114.193 4.17342 0
115.454 -0.114916 0
116.727 2.02565 0
115.462 4.17103 0
114.189 2.03046 0
115.458 2.02807 0
116.723 -0.117332 0
119.26 -0.122235 0
119.268 4.1637 0
116.731 4.16861 0
117.991 -0.119772 0
119.264 2.02074 0
118 4.16617 0
116.727 2.02565 0
117.995 2.02321 0
119.26 -0.122235 0
121.798 -0.127228 0
121.806 4.15871 0
119.268 4.1637 0
120.529 -0.12472 0
121.802 2.01575 0
120.537 4.16122 0
119.264 2.02074 0
120.533 2.01826 0
121.798 -0.127228 0
124.335 -0.132311 0
124.344 4.15362 0
121.806 4.15871 0
123.066 -0.129758 0
124.339 2.01067 0
123.075 4.15618 0
121.802 2.01575 0
123.071 2.01322 0
124.335 -0.132311 0
126.873 -0.137484 0
126.882 4.14845 0
124.344 4.15362 0
125.604 -0.134886 0
126.877 2.00549 0
125.613 4.15105 0
124.339 2.01067 0
125.608 2.00809 0
126.873 -0.137484 0
129.41 -0.142746 0
129.419 4.14319 0
126.882 4.14845 0
128.141 -0.140104 0
129.415 2.00023 0
128.15 4.14583 0
126.877 2.00549 0
128.146 2.00287 0
129.41 -0.142746 0
131.948 -0.148096 0
131.957 4.13783 0
129.419 4.14319 0
130.679 -0.14541 0
131.952 1.99488 0
130.688 4.14052 0
129.415 2.00023 0
130.684 1.99757 0
131.948 -0.148096 0
134.485 -0.153534 0
134.495 4.13239 0
131.957 4.13783 0
133.217 -0.150804 0
134.49 1.98944 0
133.226 4.13513 0
131.952 1.99488 0
133.221 1.99217 0
134.485 -0.153534 0
137.023 -0.159059 0
137.032 4.12687 0
134.495 4.13239 0
135.754 -0.156285 0
137.028 1.98391 0
135.763 4.12964 0
134.49 1.98944 0
135.759 1.98669 0
137.023 -0.159059 0
139.56 -0.164671 0
139.57 4.12125 0
137.032 4.12687 0
138.292 -0.161854 0
139.565 1.9783 0
138.301 4.12407 0
137.028 1.98391 0
138.296 1.98112 0
139.56 -0.164671 0
142.098 -0.170368 0
142.108 4.11555 0
139.57 4.12125 0
140.829 -0.167509 0
142.103 1.9726 0
140.839 4.11841 0
139.565 1.9783 0
140.834 1.97546 0
142.098 -0.170368 0
144.636 -0.176151 0
144.645 4.10977 0
142.108 4.11555 0
143.367 -0.173249 0
144.64 1.96682 0
143.377 4.11267 0
142.103 1.9726 0
143.372 1.96972 0
144.636 -0.176151 0
147.173 -0.182019 0
147.183 4.1039 0
144.645 4.10977 0
145.904 -0.179075 0
147.178 1.96095 0
145.914 4.10684 0
144.64 1.96682 0
145.909 1.96389 0
147.173 -0.182019 0
[...]
    <PointData>
      <DataArray type="Float64" NumberOfComponents="3" Name="Displacement" format="ascii">
0 0 0
-0.00076903 -0.000384185 -0.000384185
-0.000458359 -0.000129924 -0.000129924
0 0 0
-0.000418416 -0.000239408 -0.000239408
-0.000579096 -0.000232235 -0.000232235
-0.000222428 -4.65921e-05 -4.65921e-05
0 0 0
-0.0002762 -0.000102346 -0.000102346
-0.00076903 -0.000384185 -0.000384185
-0.00143442 -0.000667447 -0.000667447
-0.000954625 -0.000375029 -0.000375029
-0.000458359 -0.000129924 -0.000129924
-0.00110272 -0.000520472 -0.000520472
-0.00118242 -0.000506422 -0.000506422
-0.000704132 -0.000240642 -0.000240642
-0.000579096 -0.000232235 -0.000232235
-0.000882459 -0.000365194 -0.000365194
-0.00143442 -0.000667447 -0.000667447
-0.00210557 -0.00100914 -0.00100914
-0.00145535 -0.000711758 -0.000711758
-0.000954625 -0.000375029 -0.000375029
-0.00176882 -0.000828291 -0.000828291
-0.00177687 -0.000849242 -0.000849242
-0.00120529 -0.00053155 -0.00053155
-0.00118242 -0.000506422 -0.000506422
-0.00148042 -0.000666675 -0.000666675
-0.00210557 -0.00100914 -0.00100914
-0.00278213 -0.00144873 -0.00144873
-0.00195354 -0.00115026 -0.00115026
-0.00145535 -0.000711758 -0.000711758
-0.00244337 -0.00121566 -0.00121566
-0.00236617 -0.00128779 -0.00128779
-0.00170488 -0.000917693 -0.000917693
-0.00177687 -0.000849242 -0.000849242
-0.00207195 -0.00105564 -0.00105564
-0.00278213 -0.00144873 -0.00144873
-0.00346223 -0.00199531 -0.00199531
-0.00244745 -0.0016978 -0.0016978
-0.00195354 -0.00115026 -0.00115026
-0.00312193 -0.00170827 -0.00170827
-0.0029534 -0.00183496 -0.00183496
-0.002201 -0.00141009 -0.00141009
-0.00236617 -0.00128779 -0.00128779
-0.00265999 -0.0015474 -0.0015474
-0.00346223 -0.00199531 -0.00199531
-0.00414251 -0.00265503 -0.00265503
-0.00293806 -0.00235858 -0.00235858
-0.00244745 -0.0016978 -0.0016978
-0.00380246 -0.00231089 -0.00231089
-0.00353859 -0.00249485 -0.00249485
-0.00269314 -0.00201391 -0.00201391
-0.0029534 -0.00183496 -0.00183496
-0.00324626 -0.00215068 -0.00215068
-0.00414251 -0.00265503 -0.00265503
-0.00482177 -0.00342874 -0.00342874
-0.00342557 -0.00313378 -0.00313378
-0.00293806 -0.00235858 -0.00235858
-0.00448234 -0.0030276 -0.0030276
-0.0041217 -0.00326924 -0.00326924
-0.00318218 -0.00273184 -0.00273184
-0.00353859 -0.00249485 -0.00249485
-0.00383043 -0.00286769 -0.00286769
-0.00482177 -0.00342874 -0.00342874
-0.00549875 -0.00431719 -0.00431719
-0.00391035 -0.00402374 -0.00402374
-0.00342557 -0.00313378 -0.00313378
-0.00516059 -0.00385863 -0.00385863
-0.00470236 -0.00415836 -0.00415836
-0.00366829 -0.00356443 -0.00356443
-0.0041217 -0.00326924 -0.00326924
-0.00441236 -0.00369947 -0.00369947
-0.00549875 -0.00431719 -0.00431719
-0.00617294 -0.00531994 -0.00531994
-0.00439249 -0.00502811 -0.00502811
-0.00391035 -0.00402374 -0.00402374
-0.00583622 -0.0048043 -0.0048043
-0.00528039 -0.00516193 -0.00516193
-0.00415175 -0.00451166 -0.00451166
-0.00470236 -0.00415836 -0.00415836
-0.00499172 -0.00464587 -0.00464587
-0.00617294 -0.00531994 -0.00531994
-0.00684393 -0.00643659 -0.00643659
-0.00487208 -0.00614639 -0.00614639
-0.00439249 -0.00502811 -0.00502811
-0.00650885 -0.00586406 -0.00586406
-0.00585559 -0.00627941 -0.00627941
-0.0046326 -0.00557305 -0.00557305
-0.00528039 -0.00516193 -0.00516193
-0.00556835 -0.00570647 -0.00570647
-0.00684393 -0.00643659 -0.00643659
-0.00751158 -0.00766651 -0.00766651
-0.00534915 -0.00737796 -0.00737796
-0.00487208 -0.00614639 -0.00614639
-0.00717818 -0.00703743 -0.00703743
-0.00642789 -0.0075102 -0.0075102
-0.00511093 -0.00674805 -0.00674805
-0.00585559 -0.00627941 -0.00627941
-0.00614211 -0.00688068 -0.00688068
-0.00751158 -0.00766651 -0.00766651
-0.00817577 -0.0090091 -0.0090091
-0.00582371 -0.0087222 -0.0087222
-0.00534915 -0.00737796 -0.00737796
-0.00784411 -0.00832376 -0.00832376
-0.00699724 -0.00885367 -0.00885367
-0.00558674 -0.00803603 -0.00803603
-0.00642789 -0.0075102 -0.0075102
-0.00671294 -0.00816789 -0.00816789
-0.00817577 -0.0090091 -0.0090091
-0.00883648 -0.0104637 -0.0104637
-0.00629577 -0.0101785 -0.0101785
-0.00582371 -0.0087222 -0.0087222
-0.00850656 -0.00972244 -0.00972244
-0.00756362 -0.0103092 -0.0103092
-0.00606005 -0.00943637 -0.00943637
-0.00699724 -0.00885367 -0.00885367
-0.0072808 -0.00956746 -0.00956746
-0.00883648 -0.0104637 -0.0104637
-0.00949368 -0.0120297 -0.0120297
-0.00676535 -0.0117462 -0.0117462
-0.00629577 -0.0101785 -0.0101785
-0.00916552 -0.0112328 -0.0112328
-0.008127 -0.0118761 -0.0118761
-0.00653087 -0.0109484 -0.0109484
-0.00756362 -0.0103092 -0.0103092
-0.00784568 -0.0110787 -0.0110787
-0.00949368 -0.0120297 -0.0120297
-0.0101474 -0.0137065 -0.0137065
-0.00723243 -0.0134247 -0.0134247
-0.00676535 -0.0117462 -0.0117462
-0.00982097 -0.0128543 -0.0128543
-0.00868739 -0.0135538 -0.0135538
-0.0069992 -0.0125716 -0.0125716
-0.008127 -0.0118761 -0.0118761
-0.00840756 -0.0127011 -0.0127011
-0.0101474 -0.0137065 -0.0137065
-0.0107976 -0.0154935 -0.0154935
-0.00769704 -0.0152133 -0.0152133
-0.00723243 -0.0134247 -0.0134247
-0.0104729 -0.0145863 -0.0145863
-0.00924478 -0.0153417 -0.0153417
-0.00746505 -0.0143053 -0.0143053
-0.00868739 -0.0135538 -0.0135538
-0.00896646 -0.014434 -0.014434
-0.0107976 -0.0154935 -0.0154935
-0.0114443 -0.0173901 -0.0173901
-0.00815917 -0.0171116 -0.0171116
-0.00769704 -0.0152133 -0.0152133
-0.0111214 -0.0164282 -0.0164282
-0.00979919 -0.0172392 -0.0172392
-0.00792842 -0.0161488 -0.0161488
-0.00924478 -0.0153417 -0.0153417
-0.00952236 -0.0162768 -0.0162768
-0.0114443 -0.0173901 -0.0173901
-0.0120874 -0.0193956 -0.0193956
-0.00861883 -0.0191188 -0.0191188
-0.00815917 -0.0171116 -0.0171116
-0.0117663 -0.0183793 -0.0183793
-0.0103506 -0.0192456 -0.0192456
-0.00838931 -0.0181016 -0.0181016
-0.00979919 -0.0172392 -0.0172392
-0.0100753 -0.0182288 -0.0182288
-0.0120874 -0.0193956 -0.0193956
-0.0127271 -0.0215095 -0.0215095
-0.00907602 -0.0212344 -0.0212344
-0.00861883 -0.0191188 -0.0191188
-0.0124077 -0.0204391 -0.0204391
-0.0108991 -0.0213604 -0.0213604
-0.00884773 -0.0201631 -0.0201631
-0.0103506 -0.0192456 -0.0192456
-0.0106252 -0.0202895 -0.0202895
-0.0127271 -0.0215095 -0.0215095
-0.0133634 -0.0237312 -0.0237312
-0.00953074 -0.0234578 -0.0234578
-0.00907602 -0.0212344 -0.0212344
-0.0130457 -0.0226069 -0.0226069
-0.0114445 -0.023583 -0.023583
-0.00930369 -0.0223327 -0.0223327
-0.0108991 -0.0213604 -0.0213604
-0.0111722 -0.0224583 -0.0224583
-0.0133634 -0.0237312 -0.0237312
-0.0139961 -0.02606 -0.02606
-0.009983 -0.0257883 -0.0257883
-0.00953074 -0.0234578 -0.0234578
-0.0136802 -0.0248822 -0.0248822
-0.011987 -0.0259127 -0.0259127
-0.00975718 -0.0246097 -0.0246097
-0.0114445 -0.023583 -0.023583
-0.0117161 -0.0247345 -0.0247345
-0.0139961 -0.02606 -0.02606
-0.0146253 -0.0284953 -0.0284953
-0.0104328 -0.0282253 -0.0282253
-0.009983 -0.0257883 -0.0257883
-0.0143111 -0.0272643 -0.0272643
-0.0125265 -0.028349 -0.028349
-0.0102082 -0.0269935 -0.0269935
-0.011987 -0.0259127 -0.0259127
-0.0122571 -0.0271176 -0.0271176
-0.0146253 -0.0284953 -0.0284953
-0.0152511 -0.0310365 -0.0310365
-0.0108802 -0.0307683 -0.0307683
-0.0104328 -0.0282253 -0.0282253
-0.0149386 -0.0297527 -0.0297527
-0.0130631 -0.0308912 -0.0308912
-0.0106568 -0.0294836 -0.0294836
-0.0125265 -0.028349 -0.028349
-0.0127952 -0.0296069 -0.0296069
-0.0152511 -0.0310365 -0.0310365
-0.0158734 -0.0336831 -0.0336831
-0.0113251 -0.0334167 -0.0334167
-0.0108802 -0.0307683 -0.0307683
-0.0155627 -0.0323467 -0.0323467
-0.0135967 -0.0335387 -0.0335387
-0.0111029 -0.0320794 -0.0320794
-0.0130631 -0.0308912 -0.0308912
-0.0133303 -0.0322018 -0.0322018
-0.0158734 -0.0336831 -0.0336831
-0.0164922 -0.0364345 -0.0364345
-0.0117675 -0.0361697 -0.0361697
-0.0113251 -0.0334167 -0.0334167
-0.0161832 -0.0350457 -0.0350457
-0.0141273 -0.0362909 -0.0362909
-0.0115466 -0.0347801 -0.0347801
-0.0135967 -0.0335387 -0.0335387
-0.0138624 -0.0349018 -0.0349018
-0.0164922 -0.0364345 -0.0364345
-0.0171076 -0.0392899 -0.0392899
-0.0122075 -0.0390269 -0.0390269
-0.0117675 -0.0361697 -0.0361697
-0.0168003 -0.0378492 -0.0378492
-0.014655 -0.0391473 -0.0391473
-0.0119878 -0.0375853 -0.0375853
-0.0141273 -0.0362909 -0.0362909
-0.0143916 -0.0377062 -0.0377062
-0.0171076 -0.0392899 -0.0392899
-0.0177195 -0.0422489 -0.0422489
-0.0126451 -0.0419876 -0.0419876
-0.0122075 -0.0390269 -0.0390269
-0.017414 -0.0407565 -0.0407565
-0.0151798 -0.0421072 -0.0421072
-0.0124266 -0.0404944 -0.0404944
-0.014655 -0.0391473 -0.0391473
-0.0149178 -0.0406144 -0.0406144
-0.0177195 -0.0422489 -0.0422489
-0.0183279 -0.0453107 -0.0453107
-0.0130803 -0.0450513 -0.0450513
-0.0126451 -0.0419876 -0.0419876
-0.0180241 -0.043767 -0.043767
-0.0157016 -0.04517 -0.04517
-0.012863 -0.0435066 -0.0435066
-0.0151798 -0.0421072 -0.0421072
-0.015441 -0.0436258 -0.0436258
-0.0183279 -0.0453107 -0.0453107
-0.0189329 -0.0484749 -0.0484749
-0.013513 -0.0482172 -0.0482172
-0.0130803 -0.0450513 -0.0450513
-0.0186309 -0.0468801 -0.0468801
-0.0162204 -0.0483352 -0.0483352
-0.0132969 -0.0466215 -0.0466215
-0.0157016 -0.04517 -0.04517
-0.0159614 -0.0467399 -0.0467399
-0.0189329 -0.0484749 -0.0484749
-0.0195345 -0.0517408 -0.0517408
-0.0139432 -0.0514849 -0.0514849
-0.013513 -0.0482172 -0.0482172
-0.0192341 -0.0500952 -0.0500952
-0.0167363 -0.051602 -0.051602
-0.0137284 -0.0498384 -0.0498384
-0.0162204 -0.0483352 -0.0483352
-0.0164787 -0.0499559 -0.0499559
-0.0195345 -0.0517408 -0.0517408
-0.0201326 -0.0551077 -0.0551077
-0.0143711 -0.0548536 -0.0548536
-0.0139432 -0.0514849 -0.0514849
-0.0198339 -0.0534117 -0.0534117
-0.0172493 -0.0549699 -0.0549699
-0.0141575 -0.0531566 -0.0531566
-0.0167363 -0.051602 -0.051602
-0.0169932 -0.0532734 -0.0532734
-0.0201326 -0.0551077 -0.0551077
-0.0207272 -0.0585752 -0.0585752
-0.0147965 -0.0583229 -0.0583229
-0.0143711 -0.0548536 -0.0548536
-0.0204303 -0.056829 -0.056829
-0.0177593 -0.0584383 -0.0584383
-0.0145841 -0.0565757 -0.0565757
-0.0172493 -0.0549699 -0.0549699
-0.0175047 -0.0566916 -0.0566916
-0.0207272 -0.0585752 -0.0585752
-0.0213184 -0.0621426 -0.0621426
-0.0152196 -0.061892 -0.061892
-0.0147965 -0.0583229 -0.0583229
-0.0210232 -0.0603464 -0.0603464
-0.0182665 -0.0620067 -0.0620067
-0.0150083 -0.060095 -0.060095
-0.0177593 -0.0584383 -0.0584383
-0.0180133 -0.0602101 -0.0602101
-0.0213184 -0.0621426 -0.0621426
-0.0219062 -0.0658092 -0.0658092
-0.0156402 -0.0655604 -0.0655604
-0.0152196 -0.061892 -0.061892
-0.0216127 -0.0639635 -0.0639635
-0.0187706 -0.0656742 -0.0656742
-0.0154302 -0.0637138 -0.0637138
-0.0182665 -0.0620067 -0.0620067
-0.0185189 -0.0638281 -0.0638281
-0.0219062 -0.0658092 -0.0658092
-0.0224905 -0.0695745 -0.0695745
-0.0160583 -0.0693275 -0.0693275
-0.0156402 -0.0655604 -0.0655604
-0.0221988 -0.0676795 -0.0676795
-0.0192719 -0.0694405 -0.0694405
-0.0158495 -0.0674317 -0.0674317
-0.0187706 -0.0656742 -0.0656742
-0.0190216 -0.0675451 -0.0675451
-0.0224905 -0.0695745 -0.0695745
-0.0230714 -0.0734379 -0.0734379
-0.0164741 -0.0731927 -0.0731927
-0.0160583 -0.0693275 -0.0693275
-0.0227814 -0.071494 -0.071494
-0.0197702 -0.0733049 -0.0733049
-0.0162665 -0.0712479 -0.0712479
-0.0192719 -0.0694405 -0.0694405
-0.0195214 -0.0713605 -0.0713605
-0.0230714 -0.0734379 -0.0734379
-0.0236489 -0.0773987 -0.0773987
-0.0168875 -0.0771554 -0.0771554
-0.0164741 -0.0731927 -0.0731927
-0.0233606 -0.0754061 -0.0754061
-0.0202657 -0.0772667 -0.0772667
-0.0166811 -0.0751619 -0.0751619
-0.0197702 -0.0733049 -0.0733049
-0.0200183 -0.0752736 -0.0752736
-0.0236489 -0.0773987 -0.0773987
-0.024223 -0.0814564 -0.0814564
-0.0172985 -0.0812149 -0.0812149
-0.0168875 -0.0771554 -0.0771554
-0.0239364 -0.0794155 -0.0794155
-0.0207582 -0.0813253 -0.0813253
-0.0170933 -0.079173 -0.079173
-0.0202657 -0.0772667 -0.0772667
-0.0205123 -0.0792839 -0.0792839
-0.024223 -0.0814564 -0.0814564
-0.0247936 -0.0856104 -0.0856104
-0.017707 -0.0853706 -0.0853706
-0.0172985 -0.0812149 -0.0812149
-0.0245087 -0.0835214 -0.0835214
-0.0212478 -0.0854803 -0.0854803
-0.017503 -0.0832808 -0.0832808
-0.0207582 -0.0813253 -0.0813253
-0.0210033 -0.0833908 -0.0833908
-0.0247936 -0.0856104 -0.0856104
-0.0253608 -0.08986 -0.08986
-0.0181132 -0.0896221 -0.0896221
-0.017707 -0.0853706 -0.0853706
-0.0250776 -0.0877232 -0.0877232
-0.0217345 -0.0897309 -0.0897309
-0.0179104 -0.0874844 -0.0874844
-0.0212478 -0.0854803 -0.0854803
-0.0214915 -0.0875936 -0.0875936
-0.0253608 -0.08986 -0.08986
-0.0259246 -0.0942046 -0.0942046
-0.018517 -0.0939686 -0.0939686
-0.0181132 -0.0896221 -0.0896221
-0.0256431 -0.0920205 -0.0920205
-0.0222182 -0.0940765 -0.0940765
-0.0183154 -0.0917835 -0.0917835
-0.0217345 -0.0897309 -0.0897309
-0.0219767 -0.0918918 -0.0918918
-0.0259246 -0.0942046 -0.0942046
-0.0264849 -0.0986437 -0.0986437
-0.0189183 -0.0984095 -0.0984095
-0.018517 -0.0939686 -0.0939686
-0.0262052 -0.0964124 -0.0964124
-0.0226991 -0.0985166 -0.0985166
-0.018718 -0.0961773 -0.0961773
-0.0222182 -0.0940765 -0.0940765
-0.022459 -0.0962848 -0.0962848
-0.0264849 -0.0986437 -0.0986437
-0.0270419 -0.103177 -0.103177
-0.0193173 -0.102944 -0.102944
-0.0189183 -0.0984095 -0.0984095
-0.0267638 -0.100898 -0.100898
-0.0231771 -0.10305 -0.10305
-0.0191181 -0.100665 -0.100665
-0.0226991 -0.0985166 -0.0985166
-0.0229384 -0.100772 -0.100772
-0.0270419 -0.103177 -0.103177
-0.0275954 -0.107803 -0.107803
-0.0197139 -0.107572 -0.107572
-0.0193173 -0.102944 -0.102944
-0.0273191 -0.105478 -0.105478
-0.0236521 -0.107678 -0.107678
-0.0195159 -0.105247 -0.105247
-0.0231771 -0.10305 -0.10305
-0.023415 -0.105352 -0.105352
-0.0275954 -0.107803 -0.107803
-0.0281456 -0.112522 -0.112522
-0.0201081 -0.112293 -0.112293
-0.0197139 -0.107572 -0.107572
-0.0278709 -0.110151 -0.110151
-0.0241243 -0.112397 -0.112397
-0.0199113 -0.109921 -0.109921
-0.0236521 -0.107678 -0.107678
-0.0238886 -0.110026 -0.110026
-0.0281456 -0.112522 -0.112522
-0.0286923 -0.117332 -0.117332
-0.0205 -0.117106 -0.117106
-0.0201081 -0.112293 -0.112293
-0.0284193 -0.114916 -0.114916
-0.0245936 -0.117209 -0.117209
-0.0203044 -0.114688 -0.114688
-0.0241243 -0.112397 -0.112397
-0.0243593 -0.114792 -0.114792
-0.0286923 -0.117332 -0.117332
-0.0292356 -0.122235 -0.122235
-0.0208894 -0.12201 -0.12201
-0.0205 -0.117106 -0.117106
-0.0289644 -0.119772 -0.119772
-0.02506 -0.122112 -0.122112
-0.020695 -0.119546 -0.119546
-0.0245936 -0.117209 -0.117209
-0.0248271 -0.119649 -0.119649
-0.0292356 -0.122235 -0.122235
-0.0297755 -0.127228 -0.127228
-0.0212765 -0.127004 -0.127004
-0.0208894 -0.12201 -0.12201
-0.029506 -0.12472 -0.12472
-0.0255235 -0.127106 -0.127106
-0.0210832 -0.124496 -0.124496
-0.02506 -0.122112 -0.122112
-0.0252921 -0.124598 -0.124598
-0.0297755 -0.127228 -0.127228
-0.030312 -0.132311 -0.132311
-0.0216612 -0.13209 -0.13209
-0.0212765 -0.127004 -0.127004
-0.0300442 -0.129758 -0.129758
-0.0259841 -0.132191 -0.132191
-0.0214691 -0.129536 -0.129536
-0.0255235 -0.127106 -0.127106
-0.0257541 -0.129637 -0.129637
-0.030312 -0.132311 -0.132311
-0.0308452 -0.137484 -0.137484
-0.0220435 -0.137264 -0.137264
-0.0216612 -0.13209 -0.13209
-0.030579 -0.134886 -0.134886
-0.0264418 -0.137364 -0.137364
-0.0218526 -0.134666 -0.134666
-0.0259841 -0.132191 -0.132191
-0.0262133 -0.134766 -0.134766
-0.0308452 -0.137484 -0.137484
-0.0313749 -0.142746 -0.142746
-0.0224234 -0.142528 -0.142528
-0.0220435 -0.137264 -0.137264
-0.0311104 -0.140104 -0.140104
-0.0268966 -0.142627 -0.142627
-0.0222337 -0.139885 -0.139885
-0.0264418 -0.137364 -0.137364
-0.0266696 -0.139985 -0.139985
-0.0313749 -0.142746 -0.142746
-0.0319012 -0.148096 -0.148096
-0.022801 -0.14788 -0.14788
-0.0224234 -0.142528 -0.142528
-0.0316385 -0.14541 -0.14541
-0.0273486 -0.147978 -0.147978
-0.0226125 -0.145193 -0.145193
-0.0268966 -0.142627 -0.142627
-0.0271229 -0.145292 -0.145292
-0.0319012 -0.148096 -0.148096
-0.0324241 -0.153534 -0.153534
-0.0231762 -0.15332 -0.15332
-0.022801 -0.14788 -0.14788
-0.0321631 -0.150804 -0.150804
-0.0277976 -0.153417 -0.153417
-0.0229889 -0.150589 -0.150589
-0.0273486 -0.147978 -0.147978
-0.0275735 -0.150687 -0.150687
-0.0324241 -0.153534 -0.153534
-0.0329437 -0.159059 -0.159059
-0.023549 -0.158847 -0.158847
-0.0231762 -0.15332 -0.15332
-0.0326843 -0.156285 -0.156285
-0.0282438 -0.158944 -0.158944
-0.0233629 -0.156073 -0.156073
-0.0277976 -0.153417 -0.153417
-0.0280211 -0.15617 -0.15617
-0.0329437 -0.159059 -0.159059
-0.0334598 -0.164671 -0.164671
-0.0239195 -0.164461 -0.164461
-0.023549 -0.158847 -0.158847
-0.0332022 -0.161854 -0.161854
-0.0286871 -0.164556 -0.164556
-0.0237345 -0.161643 -0.161643
-0.0282438 -0.158944 -0.158944
-0.0284658 -0.161739 -0.161739
-0.0334598 -0.164671 -0.164671
-0.0339726 -0.170368 -0.170368
-0.0242876 -0.17016 -0.17016
-0.0239195 -0.164461 -0.164461
-0.0337166 -0.167509 -0.167509
-0.0291275 -0.170255 -0.170255
-0.0241038 -0.1673 -0.1673
-0.0286871 -0.164556 -0.164556
-0.0289077 -0.167395 -0.167395
-0.0339726 -0.170368 -0.170368
-0.034482 -0.176151 -0.176151
-0.0246533 -0.175945 -0.175945
-0.0242876 -0.17016 -0.17016
-0.0342277 -0.173249 -0.173249
-0.0295651 -0.176039 -0.176039
-0.0244707 -0.173042 -0.173042
-0.0291275 -0.170255 -0.170255
-0.0293467 -0.173137 -0.173137
-0.034482 -0.176151 -0.176151
-0.034988 -0.182019 -0.182019
-0.0250167 -0.181815 -0.181815
-0.0246533 -0.175945 -0.175945
-0.0347354 -0.179075 -0.179075
-0.0299998 -0.181908 -0.181908
-0.0248353 -0.178869 -0.178869
-0.0295651 -0.176039 -0.176039
-0.0297828 -0.178963 -0.178963
-0.034988 -0.182019 -0.182019
-0.0354906 -0.187971 -0.187971
-0.0253777 -0.187769 -0.187769
-0.0250167 -0.181815 -0.181815
-0.0352397 -0.184985 -0.184985
-0.0304316 -0.187861 -0.187861
-0.0251975 -0.184781 -0.184781
-0.0299998 -0.181908 -0.181908
-0.030216 -0.184874 -0.184874
-0.0354906 -0.187971 -0.187971
-0.0359898 -0.194007 -0.194007
-0.0257363 -0.193806 -0.193806
-0.0253777 -0.187769 -0.187769
-0.0357406 -0.190979 -0.190979
-0.0308605 -0.193898 -0.193898
-0.0255573 -0.190777 -0.190777
-0.0304316 -0.187861 -0.187861
-0.0306464 -0.190869 -0.190869
-0.0359898 -0.194007 -0.194007
-0.0364857 -0.200125 -0.200125
-0.0260926 -0.199927 -0.199927
-0.0257363 -0.193806 -0.193806
-0.0362382 -0.197056 -0.197056
-0.0312866 -0.200017 -0.200017
-0.0259147 -0.196856 -0.196856
-0.0308605 -0.193898 -0.193898
-0.0310739 -0.196947 -0.196947
-0.0364857 -0.200125 -0.200125
-0.0369781 -0.206326 -0.206326
-0.0264465 -0.206129 -0.206129
-0.0260926 -0.199927 -0.199927
-0.0367323 -0.203215 -0.203215
-0.0317098 -0.206219 -0.206219
-0.0262699 -0.203018 -0.203018
-0.0312866 -0.200017 -0.200017
-0.0314986 -0.203108 -0.203108
-0.0369781 -0.206326 -0.206326
-0.0374672 -0.212609 -0.212609
-0.0267981 -0.212414 -0.212414
-0.0264465 -0.206129 -0.206129
-0.0372231 -0.209457 -0.209457
-0.0321301 -0.212502 -0.212502
-0.0266226 -0.209261 -0.209261
-0.0317098 -0.206219 -0.206219
-0.0319203 -0.209351 -0.209351
-0.0374672 -0.212609 -0.212609
-0.0379529 -0.218972 -0.218972
-0.0271473 -0.218779 -0.218779
-0.0267981 -0.212414 -0.212414
-0.0377105 -0.21578 -0.21578
-0.0325476 -0.218867 -0.218867
-0.026973 -0.215586 -0.215586
-0.0321301 -0.212502 -0.212502
-0.0323392 -0.215675 -0.215675
-0.0379529 -0.218972 -0.218972
-0.0384353 -0.225417 -0.225417
-0.0274942 -0.225225 -0.225225
-0.0271473 -0.218779 -0.218779
-0.0381945 -0.222184 -0.222184
-0.0329622 -0.225312 -0.225312
-0.0273211 -0.221992 -0.221992
-0.0325476 -0.218867 -0.218867
-0.0327553 -0.22208 -0.22208
-0.0384353 -0.225417 -0.225417
-0.0389142 -0.231941 -0.231941
-0.0278387 -0.231751 -0.231751
-0.0274942 -0.225225 -0.225225
-0.0386752 -0.228669 -0.228669
-0.0333739 -0.231838 -0.231838
-0.0276667 -0.228478 -0.228478
-0.0329622 -0.225312 -0.225312
-0.0331684 -0.228565 -0.228565
-0.0389142 -0.231941 -0.231941
-0.0393898 -0.238544 -0.238544
-0.0281809 -0.238357 -0.238357
-0.0278387 -0.231751 -0.231751
-0.0391525 -0.235233 -0.235233
-0.0337828 -0.238442 -0.238442
-0.0280101 -0.235044 -0.235044
-0.0333739 -0.231838 -0.231838
-0.0335787 -0.23513 -0.23513
-0.0393898 -0.238544 -0.238544
-0.039862 -0.245226 -0.245226
-0.0285207 -0.245041 -0.245041
-0.0281809 -0.238357 -0.238357
-0.0396264 -0.241875 -0.241875
-0.0341888 -0.245125 -0.245125
-0.0283511 -0.241689 -0.241689
-0.0337828 -0.238442 -0.238442