<?xml version="1.0"?>
<VTKFile type="UnstructuredGrid">
  <UnstructuredGrid>
  <Piece NumberOfPoints="12411"  NumberOfCells="1379">
    <Points>
      <DataArray type="Float64" NumberOfComponents="3" format="ascii">
0 0 0
2.52422 -0.00688144 0
2.52981 4.2834 0
0 4.28571 0
1.2615 -0.00429562 0
2.52764 2.1387 0
1.26503 4.28489 0
0 2.14286 0
1.26406 2.14102 0
2.52422 -0.00688144 0
5.05031 -0.0119346 0
5.05893 4.27902 0
2.52981 4.2834 0
3.78725 -0.00931254 0
5.05484 2.13381 0
3.79441 4.28142 0
2.52764 2.1387 0
3.79121 2.13633 0
5.05031 -0.0119346 0
7.57629 -0.0180328 0
7.58797 4.273 0
5.05893 4.27902 0
6.31332 -0.0148045 0
7.58219 2.12769 0
6.32345 4.27622 0
5.05484 2.13381 0
6.3185 2.13095 0
7.57629 -0.0180328 0
10.1022 -0.0258864 0
10.1171 4.26515 0
7.58797 4.273 0
8.83923 -0.0217217 0
10.1096 2.11985 0
8.85251 4.26932 0
7.58219 2.12769 0
8.84591 2.124 0
10.1022 -0.0258864 0
12.628 -0.0356571 0
12.6462 4.25535 0
10.1171 4.26515 0
11.3651 -0.0305255 0
12.6371 2.11006 0
11.3816 4.2605 0
10.1096 2.11985 0
11.3734 2.1152 0
12.628 -0.0356571 0
15.1538 -0.0474544 0
15.1754 4.24352 0
12.6462 4.25535 0
13.8909 -0.0412999 0
15.1646 2.09825 0
13.9108 4.24969 0
12.6371 2.11006 0
13.9009 2.10441 0
15.1538 -0.0474544 0
17.6796 -0.0612927 0
17.7047 4.22964 0
15.1754 4.24352 0
16.4166 -0.0541177 0
17.6921 2.08439 0
16.44 4.23684 0
15.1646 2.09825 0
16.4284 2.09158 0
17.6796 -0.0612927 0
20.2054 -0.077185 0
20.234 4.2137 0
17.7047 4.22964 0
18.9425 -0.0689822 0
20.2197 2.06848 0
18.9693 4.22193 0
17.6921 2.08439 0
18.9559 2.07669 0
20.2054 -0.077185 0
22.7313 -0.095123 0
22.7633 4.19571 0
20.234 4.2137 0
21.4683 -0.0858988 0
22.7473 2.05051 0
21.4986 4.20496 0
20.2197 2.06848 0
21.4835 2.05975 0
22.7313 -0.095123 0
25.2572 -0.115099 0
25.2926 4.17568 0
22.7633 4.19571 0
23.9942 -0.104857 0
25.2749 2.03051 0
24.028 4.18595 0
22.7473 2.05051 0
24.0111 2.04076 0
25.2572 -0.115099 0
27.7831 -0.137102 0
27.822 4.15362 0
25.2926 4.17568 0
26.5201 -0.125848 0
27.8026 2.00847 0
26.5573 4.1649 0
25.2749 2.03051 0
26.5388 2.01974 0
27.7831 -0.137102 0
30.3091 -0.161121 0
30.3514 4.12954 0
27.822 4.15362 0
29.0461 -0.14886 0
30.3303 1.98442 0
29.0867 4.14183 0
27.8026 2.00847 0
29.0665 1.9967 0
30.3091 -0.161121 0
32.8352 -0.187144 0
32.8809 4.10345 0
30.3514 4.12954 0
31.5721 -0.173883 0
32.8581 1.95837 0
31.6162 4.11674 0
30.3303 1.98442 0
31.5942 1.97165 0
32.8352 -0.187144 0
35.3613 -0.215161 0
35.4103 4.07537 0
32.8809 4.10345 0
34.0982 -0.200904 0
35.3859 1.93032 0
34.1456 4.08966 0
32.8581 1.95837 0
34.122 1.94459 0
35.3613 -0.215161 0
37.8874 -0.24516 0
37.9398 4.0453 0
35.4103 4.07537 0
36.6243 -0.229914 0
37.9137 1.90028 0
36.6751 4.06058 0
35.3859 1.93032 0
36.6498 1.91555 0
37.8874 -0.24516 0
40.4136 -0.277131 0
40.4693 4.01326 0
37.9398 4.0453 0
39.1505 -0.2609 0
40.4415 1.86828 0
39.2046 4.02953 0
37.9137 1.90028 0
39.1776 1.88453 0
40.4136 -0.277131 0
42.9398 -0.311062 0
42.9989 3.97926 0
40.4693 4.01326 0
41.6767 -0.293852 0
42.9694 1.83431 0
41.7341 3.9965 0
40.4415 1.86828 0
41.7054 1.85154 0
42.9398 -0.311062 0
45.466 -0.346943 0
45.5284 3.9433 0
42.9989 3.97926 0
44.2029 -0.328759 0
45.4973 1.79839 0
44.2637 3.96152 0
42.9694 1.83431 0
44.2333 1.81659 0
45.466 -0.346943 0
47.9923 -0.384763 0
48.058 3.90541 0
45.5284 3.9433 0
46.7292 -0.365611 0
48.0252 1.76053 0
46.7932 3.9246 0
45.4973 1.79839 0
46.7612 1.7797 0
47.9923 -0.384763 0
50.5187 -0.424511 0
50.5876 3.86558 0
48.058 3.90541 0
49.2555 -0.404397 0
50.5532 1.72074 0
49.3228 3.88573 0
48.0252 1.76053 0
49.2892 1.74088 0
50.5187 -0.424511 0
53.045 -0.466177 0
53.1172 3.82383 0
50.5876 3.86558 0
51.7818 -0.445105 0
53.0811 1.67903 0
51.8524 3.84494 0
50.5532 1.72074 0
51.8172 1.70013 0
53.045 -0.466177 0
55.5714 -0.50975 0
55.6468 3.78018 0
53.1172 3.82383 0
54.3082 -0.487726 0
55.6092 1.63542 0
54.382 3.80224 0
53.0811 1.67903 0
54.3451 1.65746 0
55.5714 -0.50975 0
58.0978 -0.555218 0
58.1764 3.73462 0
55.6468 3.78018 0
56.8346 -0.532248 0
58.1372 1.5899 0
56.9116 3.75763 0
55.6092 1.63542 0
56.8732 1.6129 0
58.0978 -0.555218 0
60.6243 -0.602572 0
60.7061 3.68718 0
58.1764 3.73462 0
59.361 -0.57866 0
60.6652 1.54251 0
59.4413 3.71114 0
58.1372 1.5899 0
59.4012 1.56644 0
60.6243 -0.602572 0
63.1508 -0.6518 0
63.2357 3.63786 0
60.7061 3.68718 0
61.8875 -0.626952 0
63.1933 1.49323 0
61.9709 3.66275 0
60.6652 1.54251 0
61.9293 1.5181 0
63.1508 -0.6518 0
65.6773 -0.702892 0
65.7654 3.58668 0
63.2357 3.63786 0
64.414 -0.677114 0
65.7214 1.44209 0
64.5006 3.6125 0
63.1933 1.49323 0
64.4573 1.46789 0
65.6773 -0.702892 0
68.2038 -0.755836 0
68.2951 3.53364 0
65.7654 3.58668 0
66.9405 -0.729133 0
68.2495 1.3891 0
67.0302 3.56039 0
65.7214 1.44209 0
66.9854 1.41583 0
68.2038 -0.755836 0
70.7304 -0.810623 0
70.8247 3.47876 0
68.2951 3.53364 0
69.4671 -0.783 0
70.7776 1.33427 0
69.5599 3.50643 0
68.2495 1.3891 0
69.5135 1.36191 0
70.7304 -0.810623 0
73.2569 -0.86724 0
73.3544 3.42204 0
70.8247 3.47876 0
71.9936 -0.838703 0
73.3057 1.2776 0
72.0896 3.45063 0
70.7776 1.33427 0
72.0417 1.30616 0
73.2569 -0.86724 0
75.7836 -0.925679 0
75.8841 3.36351 0
73.3544 3.42204 0
74.5202 -0.896233 0
75.8339 1.21911 0
74.6193 3.393 0
73.3057 1.2776 0
74.5698 1.24858 0
75.7836 -0.925679 0
78.3102 -0.985927 0
78.4138 3.30316 0
75.8841 3.36351 0
77.0469 -0.955577 0
78.362 1.15881 0
77.1489 3.33356 0
75.8339 1.21911 0
77.098 1.18918 0
78.3102 -0.985927 0
80.8368 -1.04797 0
80.9435 3.24101 0
78.4138 3.30316 0
79.5735 -1.01673 0
80.8902 1.09671 0
79.6786 3.27231 0
78.362 1.15881 0
79.6261 1.12798 0
80.8368 -1.04797 0
83.3635 -1.11181 0
83.4732 3.17707 0
80.9435 3.24101 0
82.1002 -1.07967 0
83.4184 1.03282 0
82.2083 3.20926 0
80.8902 1.09671 0
82.1543 1.06499 0
83.3635 -1.11181 0
85.8902 -1.17742 0
86.0029 3.11135 0
83.4732 3.17707 0
84.6268 -1.14439 0
85.9466 0.967155 0
84.738 3.14443 0
83.4184 1.03282 0
84.6825 1.00021 0
85.8902 -1.17742 0
88.4169 -1.2448 0
88.5326 3.04387 0
86.0029 3.11135 0
87.1535 -1.21089 0
88.4748 0.899722 0
87.2677 3.07783 0
85.9466 0.967155 0
87.2107 0.933659 0
88.4169 -1.2448 0
90.9436 -1.31393 0
91.0623 2.97462 0
88.5326 3.04387 0
89.6803 -1.27915 0
91.003 0.830531 0
89.7974 3.00946 0
88.4748 0.899722 0
89.7389 0.865345 0
90.9436 -1.31393 0
93.4704 -1.38481 0
93.592 2.90363 0
91.0623 2.97462 0
92.207 -1.34916 0
93.5312 0.759595 0
92.3271 2.93935 0
91.003 0.830531 0
92.2671 0.795281 0
93.4704 -1.38481 0
95.9971 -1.45743 0
96.1216 2.83091 0
93.592 2.90363 0
94.7338 -1.4209 0
96.0594 0.686924 0
94.8568 2.86749 0
93.5312 0.759595 0
94.7953 0.723476 0
95.9971 -1.45743 0
98.5239 -1.53176 0
98.6513 2.75646 0
96.1216 2.83091 0
97.2605 -1.49438 0
98.5877 0.612529 0
97.3865 2.7939 0
96.0594 0.686924 0
97.3236 0.649942 0
98.5239 -1.53176 0
101.051 -1.60781 0
101.181 2.68029 0
98.6513 2.75646 0
99.7873 -1.56958 0
101.116 0.536421 0
99.9162 2.71859 0
98.5877 0.612529 0
99.8518 0.574689 0
101.051 -1.60781 0
103.577 -1.68557 0
103.711 2.60242 0
101.181 2.68029 0
102.314 -1.64648 0
103.644 0.45861 0
102.446 2.64157 0
101.116 0.536421 0
102.38 0.497728 0
103.577 -1.68557 0
106.104 -1.76501 0
106.24 2.52286 0
103.711 2.60242 0
104.841 -1.72508 0
106.172 0.379108 0
104.976 2.56286 0
103.644 0.45861 0
104.908 0.41907 0
106.104 -1.76501 0
108.631 -1.84613 0
108.77 2.44162 0
106.24 2.52286 0
107.368 -1.80536 0
108.701 0.297925 0
107.505 2.48245 0
106.172 0.379108 0
107.437 0.338726 0
108.631 -1.84613 0
111.158 -1.92892 0
111.3 2.35871 0
108.77 2.44162 0
109.895 -1.88732 0
111.229 0.215072 0
110.035 2.40037 0
108.701 0.297925 0
109.965 0.256706 0
111.158 -1.92892 0
113.685 -2.01337 0
113.829 2.27414 0
111.3 2.35871 0
112.421 -1.97094 0
113.757 0.130559 0
112.564 2.31663 0
111.229 0.215072 0
112.493 0.173022 0
113.685 -2.01337 0
116.212 -2.09947 0
116.359 2.18792 0
113.829 2.27414 0
114.948 -2.05622 0
116.285 0.0443983 0
115.094 2.23123 0
113.757 0.130559 0
115.021 0.0876841 0
116.212 -2.09947 0
118.739 -2.18721 0
118.889 2.10006 0
116.359 2.18792 0
117.475 -2.14313 0
118.814 -0.0434001 0
117.624 2.14419 0
116.285 0.0443983 0
117.549 0.000703126 0
118.739 -2.18721 0
121.265 -2.27657 0
121.418 2.01057 0
118.889 2.10006 0
120.002 -2.23168 0
121.342 -0.132825 0
120.153 2.05552 0
118.814 -0.0434001 0
120.078 -0.08791 0
121.265 -2.27657 0
123.792 -2.36755 0
123.948 1.91947 0
121.418 2.01057 0
122.529 -2.32186 0
123.87 -0.223866 0
122.683 1.96522 0
121.342 -0.132825 0
122.606 -0.178145 0
123.792 -2.36755 0
126.319 -2.46013 0
126.477 1.82676 0
123.948 1.91947 0
125.056 -2.41364 0
126.398 -0.316513 0
125.213 1.87332 0
123.87 -0.223866 0
125.134 -0.26999 0
126.319 -2.46013 0
128.846 -2.5543 0
129.007 1.73246 0
126.477 1.82676 0
127.583 -2.50702 0
128.927 -0.410753 0
127.742 1.77981 0
126.398 -0.316513 0
127.662 -0.363434 0
128.846 -2.5543 0
131.373 -2.65006 0
131.537 1.63657 0
129.007 1.73246 0
130.109 -2.60198 0
131.455 -0.506577 0
130.272 1.68471 0
128.927 -0.410753 0
130.191 -0.458468 0
131.373 -2.65006 0
133.9 -2.74739 0
134.066 1.53911 0
131.537 1.63657 0
132.636 -2.69853 0
133.983 -0.603974 0
132.801 1.58804 0
131.455 -0.506577 0
132.719 -0.55508 0
133.9 -2.74739 0
136.427 -2.84628 0
136.596 1.44009 0
134.066 1.53911 0
135.163 -2.79664 0
136.511 -0.702932 0
135.331 1.48979 0
133.983 -0.603974 0
135.247 -0.653259 0
136.427 -2.84628 0
138.954 -2.94673 0
139.125 1.33951 0
136.596 1.44009 0
137.69 -2.89631 0
139.039 -0.803442 0
137.86 1.38999 0
136.511 -0.702932 0
137.775 -0.752994 0
138.954 -2.94673 0
141.481 -3.04871 0
141.655 1.2374 0
139.125 1.33951 0
140.217 -2.99752 0
141.568 -0.905492 0
140.39 1.28865 0
139.039 -0.803442 0
140.304 -0.854275 0
141.481 -3.04871 0
144.007 -3.15222 0
144.184 1.13375 0
141.655 1.2374 0
142.744 -3.10027 0
144.096 -1.00907 0
142.919 1.18577 0
141.568 -0.905492 0
142.832 -0.957091 0
144.007 -3.15222 0
146.534 -3.25725 0
146.714 1.02859 0
144.184 1.13375 0
145.271 -3.20454 0
146.624 -1.11417 0
145.449 1.08136 0
144.096 -1.00907 0
145.36 -1.06143 0
146.534 -3.25725 0
149.061 -3.36378 0
149.243 0.921918 0
146.714 1.02859 0
147.798 -3.31033 0
149.152 -1.22077 0
[...]
    <PointData>
      <DataArray type="Float64" NumberOfComponents="3" Name="Displacement" format="ascii">
0 0 0
-0.0138492 -0.00688144 -0.00688144
-0.00826198 -0.00231652 -0.00231652
0 0 0
-0.0075392 -0.00429562 -0.00429562
-0.0104337 -0.00415586 -0.00415586
-0.00400839 -0.000828278 -0.000828278
0 0 0
-0.00497511 -0.00183321 -0.00183321
-0.0138492 -0.00688144 -0.00688144
-0.0258308 -0.0119346 -0.0119346
-0.0172105 -0.00669574 -0.00669574
-0.00826198 -0.00231652 -0.00231652
-0.0198563 -0.00931254 -0.00931254
-0.0213053 -0.00904954 -0.00904954
-0.0126936 -0.00429455 -0.00429455
-0.0104337 -0.00415586 -0.00415586
-0.0159002 -0.00652957 -0.00652957
-0.0258308 -0.0119346 -0.0119346
-0.0379255 -0.0180328 -0.0180328
-0.0262406 -0.0127151 -0.0127151
-0.0172105 -0.00669574 -0.00669574
-0.031856 -0.0148045 -0.0148045
-0.0320198 -0.0151719 -0.0151719
-0.0217307 -0.00949315 -0.00949315
-0.0213053 -0.00904954 -0.00904954
-0.026676 -0.0119106 -0.0119106
-0.0379255 -0.0180328 -0.0180328
-0.0501248 -0.0258864 -0.0258864
-0.0352287 -0.0205599 -0.0205599
-0.0262406 -0.0127151 -0.0127151
-0.0440156 -0.0217217 -0.0217217
-0.0426469 -0.0230115 -0.0230115
-0.0307419 -0.0163985 -0.0163985
-0.0320198 -0.0151719 -0.0151719
-0.0373403 -0.0188608 -0.0188608
-0.0501248 -0.0258864 -0.0258864
-0.0623946 -0.0356571 -0.0356571
-0.0441459 -0.0303606 -0.0303606
-0.0352287 -0.0205599 -0.0205599
-0.0562543 -0.0305255 -0.0305255
-0.0532436 -0.0327988 -0.0327988
-0.0396955 -0.0252102 -0.0252102
-0.0426469 -0.0230115 -0.0230115
-0.0479481 -0.0276545 -0.0276545
-0.0623946 -0.0356571 -0.0356571
-0.0746751 -0.0474544 -0.0474544
-0.0530117 -0.0421923 -0.0421923
-0.0441459 -0.0303606 -0.0303606
-0.0685354 -0.0412999 -0.0412999
-0.0638117 -0.0446069 -0.0446069
-0.0485846 -0.0360205 -0.0360205
-0.0532436 -0.0327988 -0.0327988
-0.0585313 -0.038448 -0.038448
-0.0746751 -0.0474544 -0.0474544
-0.0869463 -0.0612927 -0.0612927
-0.0618311 -0.0560756 -0.0560756
-0.0530117 -0.0421923 -0.0421923
-0.0808132 -0.0541177 -0.0541177
-0.0743519 -0.0584666 -0.0584666
-0.0574268 -0.048877 -0.048877
-0.0638117 -0.0446069 -0.0446069
-0.0690856 -0.0512796 -0.0512796
-0.0869463 -0.0612927 -0.0612927
-0.0991869 -0.077185 -0.077185
-0.0706126 -0.0720157 -0.0720157
-0.0618311 -0.0560756 -0.0560756
-0.0930712 -0.0689822 -0.0689822
-0.0848587 -0.0743813 -0.0743813
-0.0662263 -0.0637888 -0.0637888
-0.0743519 -0.0584666 -0.0584666
-0.0796096 -0.0661674 -0.0661674
-0.0991869 -0.077185 -0.077185
-0.111389 -0.095123 -0.095123
-0.079359 -0.090006 -0.090006
-0.0706126 -0.0720157 -0.0720157
-0.105293 -0.0858988 -0.0858988
-0.0953303 -0.0923457 -0.0923457
-0.07499 -0.0807551 -0.0807551
-0.0848587 -0.0743813 -0.0743813
-0.090099 -0.0831079 -0.0831079
-0.111389 -0.095123 -0.095123
-0.123547 -0.115099 -0.115099
-0.0880736 -0.110037 -0.110037
-0.079359 -0.090006 -0.090006
-0.117474 -0.104857 -0.104857
-0.105765 -0.11235 -0.11235
-0.0837202 -0.0997671 -0.0997671
-0.0953303 -0.0923457 -0.0923457
-0.100552 -0.102093 -0.102093
-0.123547 -0.115099 -0.115099
-0.13566 -0.137102 -0.137102
-0.0967582 -0.132098 -0.132098
-0.0880736 -0.110037 -0.110037
-0.12961 -0.125848 -0.125848
-0.116163 -0.134383 -0.134383
-0.0924196 -0.120814 -0.120814
-0.105765 -0.11235 -0.11235
-0.110968 -0.123113 -0.123113
-0.13566 -0.137102 -0.137102
-0.147728 -0.161121 -0.161121
-0.105415 -0.156177 -0.156177
-0.0967582 -0.132098 -0.132098
-0.1417 -0.14886 -0.14886
-0.126524 -0.158433 -0.158433
-0.10109 -0.143886 -0.143886
-0.116163 -0.134383 -0.134383
-0.121348 -0.146156 -0.146156
-0.147728 -0.161121 -0.161121
-0.159751 -0.187144 -0.187144
-0.114045 -0.182263 -0.182263
-0.105415 -0.156177 -0.156177
-0.153745 -0.173883 -0.173883
-0.13685 -0.184489 -0.184489
-0.109733 -0.16897 -0.16897
-0.126524 -0.158433 -0.158433
-0.131692 -0.171211 -0.171211
-0.159751 -0.187144 -0.187144
-0.17173 -0.215161 -0.215161
-0.122649 -0.210345 -0.210345
-0.114045 -0.182263 -0.182263
-0.165746 -0.200904 -0.200904
-0.147142 -0.212539 -0.212539
-0.11835 -0.196055 -0.196055
-0.13685 -0.184489 -0.184489
-0.142 -0.198265 -0.198265
-0.17173 -0.215161 -0.215161
-0.183667 -0.24516 -0.24516
-0.131231 -0.240412 -0.240412
-0.122649 -0.210345 -0.210345
-0.177704 -0.229914 -0.229914
-0.157401 -0.242573 -0.242573
-0.126943 -0.225131 -0.225131
-0.147142 -0.212539 -0.212539
-0.152276 -0.227309 -0.227309
-0.183667 -0.24516 -0.24516
-0.195564 -0.277131 -0.277131
-0.13979 -0.272452 -0.272452
-0.131231 -0.240412 -0.240412
-0.189621 -0.2609 -0.2609
-0.167629 -0.27458 -0.27458
-0.135513 -0.256186 -0.256186
-0.157401 -0.242573 -0.242573
-0.162519 -0.258331 -0.258331
-0.195564 -0.277131 -0.277131
-0.207421 -0.311062 -0.311062
-0.148328 -0.306456 -0.306456
-0.13979 -0.272452 -0.272452
-0.201497 -0.293852 -0.293852
-0.177826 -0.308549 -0.308549
-0.144062 -0.28921 -0.28921
-0.167629 -0.27458 -0.27458
-0.172731 -0.29132 -0.29132
-0.207421 -0.311062 -0.311062
-0.21924 -0.346943 -0.346943
-0.156847 -0.342412 -0.342412
-0.148328 -0.306456 -0.306456
-0.213335 -0.328759 -0.328759
-0.187995 -0.344468 -0.344468
-0.15259 -0.324191 -0.324191
-0.177826 -0.308549 -0.308549
-0.182914 -0.326265 -0.326265
-0.21924 -0.346943 -0.346943
-0.231023 -0.384763 -0.384763
-0.165348 -0.380309 -0.380309
-0.156847 -0.342412 -0.342412
-0.225136 -0.365611 -0.365611
-0.198137 -0.382328 -0.382328
-0.1611 -0.361118 -0.361118
-0.187995 -0.344468 -0.344468
-0.19307 -0.363156 -0.363156
-0.231023 -0.384763 -0.384763
-0.242771 -0.424511 -0.424511
-0.173832 -0.420136 -0.420136
-0.165348 -0.380309 -0.380309
-0.236901 -0.404397 -0.404397
-0.208253 -0.422117 -0.422117
-0.169592 -0.399982 -0.399982
-0.198137 -0.382328 -0.382328
-0.203198 -0.401982 -0.401982
-0.242771 -0.424511 -0.424511
-0.254484 -0.466177 -0.466177
-0.182301 -0.461883 -0.461883
-0.173832 -0.420136 -0.420136
-0.248631 -0.445105 -0.445105
-0.218344 -0.463825 -0.463825
-0.178069 -0.44077 -0.44077
-0.208253 -0.422117 -0.422117
-0.213301 -0.442732 -0.442732
-0.254484 -0.466177 -0.466177
-0.266165 -0.50975 -0.50975
-0.190756 -0.505539 -0.505539
-0.182301 -0.461883 -0.461883
-0.260329 -0.487726 -0.487726
-0.228412 -0.50744 -0.50744
-0.18653 -0.483473 -0.483473
-0.218344 -0.463825 -0.463825
-0.223381 -0.485395 -0.485395
-0.266165 -0.50975 -0.50975
-0.277814 -0.555218 -0.555218
-0.199198 -0.551093 -0.551093
-0.190756 -0.505539 -0.505539
-0.271994 -0.532248 -0.532248
-0.238457 -0.552953 -0.552953
-0.194978 -0.52808 -0.52808
-0.228412 -0.50744 -0.50744
-0.233437 -0.52996 -0.52996
-0.277814 -0.555218 -0.555218
-0.289434 -0.602572 -0.602572
-0.207628 -0.598534 -0.598534
-0.199198 -0.551093 -0.551093
-0.283628 -0.57866 -0.57866
-0.248482 -0.600351 -0.600351
-0.203414 -0.574579 -0.574579
-0.238457 -0.552953 -0.552953
-0.243472 -0.576417 -0.576417
-0.289434 -0.602572 -0.602572
-0.301024 -0.6518 -0.6518
-0.216048 -0.647852 -0.647852
-0.207628 -0.598534 -0.598534
-0.295233 -0.626952 -0.626952
-0.258487 -0.649625 -0.649625
-0.211839 -0.622959 -0.622959
-0.248482 -0.600351 -0.600351
-0.253486 -0.624755 -0.624755
-0.301024 -0.6518 -0.6518
-0.312587 -0.702892 -0.702892
-0.224458 -0.699035 -0.699035
-0.216048 -0.647852 -0.647852
-0.306809 -0.677114 -0.677114
-0.268473 -0.700764 -0.700764
-0.220254 -0.673211 -0.673211
-0.258487 -0.649625 -0.649625
-0.263482 -0.674962 -0.674962
-0.312587 -0.702892 -0.702892
-0.324123 -0.755836 -0.755836
-0.23286 -0.752073 -0.752073
-0.224458 -0.699035 -0.699035
-0.318358 -0.729133 -0.729133
-0.278442 -0.753756 -0.753756
-0.22866 -0.725323 -0.725323
-0.268473 -0.700764 -0.700764
-0.273459 -0.727029 -0.727029
-0.324123 -0.755836 -0.755836
-0.335633 -0.810623 -0.810623
-0.241255 -0.806955 -0.806955
-0.23286 -0.752073 -0.752073
-0.329881 -0.783 -0.783
-0.288395 -0.808592 -0.808592
-0.237059 -0.779284 -0.779284
-0.278442 -0.753756 -0.753756
-0.28342 -0.780944 -0.780944
-0.335633 -0.810623 -0.810623
-0.347119 -0.86724 -0.86724
-0.249645 -0.86367 -0.86367
-0.241255 -0.806955 -0.806955
-0.341379 -0.838703 -0.838703
-0.298332 -0.865259 -0.865259
-0.245451 -0.835084 -0.835084
-0.288395 -0.808592 -0.808592
-0.293365 -0.836697 -0.836697
-0.347119 -0.86724 -0.86724
-0.358582 -0.925679 -0.925679
-0.258029 -0.922207 -0.922207
-0.249645 -0.86367 -0.86367
-0.352853 -0.896233 -0.896233
-0.308255 -0.923748 -0.923748
-0.253837 -0.892711 -0.892711
-0.298332 -0.865259 -0.865259
-0.303295 -0.894277 -0.894277
-0.358582 -0.925679 -0.925679
-0.370022 -0.985927 -0.985927
-0.26641 -0.982556 -0.982556
-0.258029 -0.922207 -0.922207
-0.364305 -0.955577 -0.955577
-0.318166 -0.984048 -0.984048
-0.26222 -0.952156 -0.952156
-0.308255 -0.923748 -0.923748
-0.313212 -0.953672 -0.953672
-0.370022 -0.985927 -0.985927
-0.381441 -1.04797 -1.04797
-0.274788 -1.0447 -1.0447
-0.26641 -0.982556 -0.982556
-0.375734 -1.01673 -1.01673
-0.328064 -1.04615 -1.04615
-0.270599 -1.01341 -1.01341
-0.318166 -0.984048 -0.984048
-0.323117 -1.01487 -1.01487
-0.381441 -1.04797 -1.04797
-0.39284 -1.11181 -1.11181
-0.283164 -1.10864 -1.10864
-0.274788 -1.0447 -1.0447
-0.387143 -1.07967 -1.07967
-0.337952 -1.11004 -1.11004
-0.278976 -1.07645 -1.07645
-0.328064 -1.04615 -1.04615
-0.333009 -1.07787 -1.07787
-0.39284 -1.11181 -1.11181
-0.40422 -1.17742 -1.17742
-0.29154 -1.17436 -1.17436
-0.283164 -1.10864 -1.10864
-0.398532 -1.14439 -1.14439
-0.347829 -1.1757 -1.1757
-0.287352 -1.14128 -1.14128
-0.337952 -1.11004 -1.11004
-0.342892 -1.14265 -1.14265
-0.40422 -1.17742 -1.17742
-0.415581 -1.2448 -1.2448
-0.299915 -1.24185 -1.24185
-0.29154 -1.17436 -1.17436
-0.409902 -1.21089 -1.21089
-0.357698 -1.24314 -1.24314
-0.295727 -1.20788 -1.20788
-0.347829 -1.1757 -1.1757
-0.352765 -1.2092 -1.2092
-0.415581 -1.2448 -1.2448
-0.426925 -1.31393 -1.31393
-0.308292 -1.31109 -1.31109
-0.299915 -1.24185 -1.24185
-0.421255 -1.27915 -1.27915
-0.367558 -1.31233 -1.31233
-0.304104 -1.27625 -1.27625
-0.357698 -1.24314 -1.24314
-0.362629 -1.27751 -1.27751
-0.426925 -1.31393 -1.31393
-0.438252 -1.38481 -1.38481
-0.316671 -1.38208 -1.38208
-0.308292 -1.31109 -1.31109
-0.432591 -1.34916 -1.34916
-0.377411 -1.38326 -1.38326
-0.312481 -1.34637 -1.34637
-0.367558 -1.31233 -1.31233
-0.372485 -1.34758 -1.34758
-0.438252 -1.38481 -1.38481
-0.449564 -1.45743 -1.45743
-0.325053 -1.45481 -1.45481
-0.316671 -1.38208 -1.38208
-0.44391 -1.4209 -1.4209
-0.387258 -1.45593 -1.45593
-0.320862 -1.41823 -1.41823
-0.377411 -1.38326 -1.38326
-0.382335 -1.41938 -1.41938
-0.449564 -1.45743 -1.45743
-0.460862 -1.53176 -1.53176
-0.333439 -1.52926 -1.52926
-0.325053 -1.45481 -1.45481
-0.455215 -1.49438 -1.49438
-0.397099 -1.53033 -1.53033
-0.329245 -1.49182 -1.49182
-0.387258 -1.45593 -1.45593
-0.392179 -1.49292 -1.49292
-0.460862 -1.53176 -1.53176
-0.472145 -1.60781 -1.60781
-0.341829 -1.60542 -1.60542
-0.333439 -1.52926 -1.52926
-0.466505 -1.56958 -1.56958
-0.406936 -1.60644 -1.60644
-0.337633 -1.56713 -1.56713
-0.397099 -1.53033 -1.53033
-0.402018 -1.56817 -1.56817
-0.472145 -1.60781 -1.60781
-0.483416 -1.68557 -1.68557
-0.350225 -1.68329 -1.68329
-0.341829 -1.60542 -1.60542
-0.477782 -1.64648 -1.64648
-0.41677 -1.68425 -1.68425
-0.346027 -1.64414 -1.64414
-0.406936 -1.60644 -1.60644
-0.411853 -1.64513 -1.64513
-0.483416 -1.68557 -1.68557
-0.494674 -1.76501 -1.76501
-0.358628 -1.76285 -1.76285
-0.350225 -1.68329 -1.68329
-0.489047 -1.72508 -1.72508
-0.4266 -1.76375 -1.76375
-0.354426 -1.72286 -1.72286
-0.41677 -1.68425 -1.68425
-0.421685 -1.72379 -1.72379
-0.494674 -1.76501 -1.76501
-0.505921 -1.84613 -1.84613
-0.367037 -1.84409 -1.84409
-0.358628 -1.76285 -1.76285
-0.500299 -1.80536 -1.80536
-0.436428 -1.84493 -1.84493
-0.362831 -1.80326 -1.80326
-0.4266 -1.76375 -1.76375
-0.431514 -1.80413 -1.80413
-0.505921 -1.84613 -1.84613
-0.517158 -1.92892 -1.92892
-0.375454 -1.927 -1.927
-0.367037 -1.84409 -1.84409
-0.511541 -1.88732 -1.88732
-0.446255 -1.92779 -1.92779
-0.371245 -1.88534 -1.88534
-0.436428 -1.84493 -1.84493
-0.441342 -1.88615 -1.88615
-0.517158 -1.92892 -1.92892
-0.528384 -2.01337 -2.01337
-0.38388 -2.01158 -2.01158
-0.375454 -1.927 -1.927
-0.522772 -1.97094 -1.97094
-0.456081 -2.0123 -2.0123
-0.379666 -1.96908 -1.96908
-0.446255 -1.92779 -1.92779
-0.451168 -1.96984 -1.96984
-0.528384 -2.01337 -2.01337
-0.539602 -2.09947 -2.09947
-0.392316 -2.0978 -2.0978
-0.38388 -2.01158 -2.01158
-0.533994 -2.05622 -2.05622
-0.465907 -2.09846 -2.09846
-0.388097 -2.05448 -2.05448
-0.456081 -2.0123 -2.0123
-0.460994 -2.05517 -2.05517
-0.539602 -2.09947 -2.09947
-0.550811 -2.18721 -2.18721
-0.400761 -2.18566 -2.18566
-0.392316 -2.0978 -2.0978
-0.545207 -2.14313 -2.14313
-0.475735 -2.18626 -2.18626
-0.396537 -2.14152 -2.14152
-0.465907 -2.09846 -2.09846
-0.470821 -2.14215 -2.14215
-0.550811 -2.18721 -2.18721
-0.562012 -2.27657 -2.27657
-0.409217 -2.27514 -2.27514
-0.400761 -2.18566 -2.18566
-0.556412 -2.23168 -2.23168
-0.485563 -2.27568 -2.27568
-0.404988 -2.2302 -2.2302
-0.475735 -2.18626 -2.18626
-0.480649 -2.23077 -2.23077
-0.562012 -2.27657 -2.27657
-0.573206 -2.36755 -2.36755
-0.417685 -2.36624 -2.36624
-0.409217 -2.27514 -2.27514
-0.56761 -2.32186 -2.32186
-0.495394 -2.36672 -2.36672
-0.41345 -2.32049 -2.32049
-0.485563 -2.27568 -2.27568
-0.490478 -2.321 -2.321
-0.573206 -2.36755 -2.36755
-0.584394 -2.46013 -2.46013
-0.426165 -2.45895 -2.45895
-0.417685 -2.36624 -2.36624
-0.578801 -2.41364 -2.41364
-0.505227 -2.45937 -2.45937
-0.421923 -2.4124 -2.4124
-0.495394 -2.36672 -2.36672
-0.50031 -2.41285 -2.41285
-0.584394 -2.46013 -2.46013
-0.595575 -2.5543 -2.5543
-0.434657 -2.55326 -2.55326
-0.426165 -2.45895 -2.45895
-0.589985 -2.50702 -2.50702
-0.515064 -2.55361 -2.55361
-0.430409 -2.50591 -2.50591
-0.505227 -2.45937 -2.45937
-0.510146 -2.50629 -2.50629
-0.595575 -2.5543 -2.5543
-0.606752 -2.65006 -2.65006
-0.443162 -2.64914 -2.64914
-0.434657 -2.55326 -2.55326
-0.601164 -2.60198 -2.60198
-0.524905 -2.64943 -2.64943
-0.438908 -2.601 -2.601
-0.515064 -2.55361 -2.55361
-0.519984 -2.60133 -2.60133
-0.606752 -2.65006 -2.65006
-0.617924 -2.74739 -2.74739
-0.451682 -2.7466 -2.7466
-0.443162 -2.64914 -2.64914
-0.612339 -2.69853 -2.69853
-0.534751 -2.74683 -2.74683
-0.44742 -2.69768 -2.69768
-0.524905 -2.64943 -2.64943
-0.529828 -2.69794 -2.69794
-0.617924 -2.74739 -2.74739
-0.629092 -2.84628 -2.84628
-0.460215 -2.84563 -2.84563
-0.451682 -2.7466 -2.7466
-0.623508 -2.79664 -2.79664
-0.544602 -2.84579 -2.84579
-0.455947 -2.79592 -2.79592
-0.534751 -2.74683 -2.74683
-0.539676 -2.79612 -2.79612
-0.629092 -2.84628 -2.84628
-0.640256 -2.94673 -2.94673
-0.468764 -2.9462 -2.9462
-0.460215 -2.84563 -2.84563
-0.634674 -2.89631 -2.89631
-0.554458 -2.9463 -2.9463
-0.464488 -2.89572 -2.89572
-0.544602 -2.84579 -2.84579
-0.549529 -2.89585 -2.89585
-0.640256 -2.94673 -2.94673
-0.651417 -3.04871 -3.04871
-0.477328 -3.04832 -3.04832
-0.468764 -2.9462 -2.9462
-0.645837 -2.99752 -2.99752
-0.56432 -3.04835 -3.04835
-0.473044 -2.99707 -2.99707
-0.554458 -2.9463 -2.9463
-0.559388 -2.99713 -2.99713
-0.651417 -3.04871 -3.04871
-0.662576 -3.15222 -3.15222
-0.485908 -3.15196 -3.15196
-0.477328 -3.04832 -3.04832
-0.656997 -3.10027 -3.10027
-0.57419 -3.15193 -3.15193
-0.481616 -3.09995 -3.09995
-0.56432 -3.04835 -3.04835
-0.569254 -3.09995 -3.09995
-0.662576 -3.15222 -3.15222
-0.673732 -3.25725 -3.25725
-0.494504 -3.25712 -3.25712
-0.485908 -3.15196 -3.15196
-0.668154 -3.20454 -3.20454
-0.584066 -3.25703 -3.25703
-0.490204 -3.20435 -3.20435
-0.57419 -3.15193 -3.15193
-0.579127 -3.20429 -3.20429
-0.673732 -3.25725 -3.25725
-0.684887 -3.36378 -3.36378
-0.503117 -3.3638 -3.3638
-0.494504 -3.25712 -3.25712
-0.67931 -3.31033 -3.31033
-0.59395 -3.36363 -3.36363
-0.498809 -3.31027 -3.31027
-0.584066 -3.25703 -3.25703
-0.589007 -3.31014 -3.31014
-0.684887 -3.36378 -3.36378
-0.696041 -3.47182 -3.47182
-0.511748 -3.47197 -3.47197
-0.503117 -3.3638 -3.3638
-0.690464 -3.41762 -3.41762
-0.603842 -3.47173 -3.47173
-0.507431 -3.41769 -3.41769
-0.59395 -3.36363 -3.36363
-0.598895 -3.4175 -3.4175
-0.696041 -3.47182 -3.47182
-0.707194 -3.58134 -3.58134
-0.520396 -3.58162 -3.58162
-0.511748 -3.47197 -3.47197
-0.701617 -3.52639 -3.52639
-0.613743 -3.58132 -3.58132
-0.51607 -3.52661 -3.52661
-0.603842 -3.47173 -3.47173
-0.608791 -3.52634 -3.52634
-0.707194 -3.58134 -3.58134
-0.718346 -3.69233 -3.69233
-0.529063 -3.69275 -3.69275
-0.520396 -3.58162 -3.58162
-0.71277 -3.63665 -3.63665
-0.623652 -3.69239 -3.69239
-0.524727 -3.637 -3.637
-0.613743 -3.58132 -3.58132
-0.618696 -3.63667 -3.63667
-0.718346 -3.69233 -3.69233
-0.729499 -3.80479 -3.80479
-0.537748 -3.80535 -3.80535
-0.529063 -3.69275 -3.69275
-0.723922 -3.74838 -3.74838
-0.633571 -3.80491 -3.80491
-0.533403 -3.74887 -3.74887
-0.623652 -3.69239 -3.69239
-0.62861 -3.74847 -3.74847
-0.729499 -3.80479 -3.80479
-0.740652 -3.9187 -3.9187
-0.546451 -3.9194 -3.9194
-0.537748 -3.80535 -3.80535
-0.735075 -3.86156 -3.86156
-0.643499 -3.9189 -3.9189
-0.542097 -3.86219 -3.86219
-0.633571 -3.80491 -3.80491
-0.638534 -3.86172 -3.86172
-0.740652 -3.9187 -3.9187
-0.751805 -4.03406 -4.03406
-0.555174 -4.03489 -4.03489
-0.546451 -3.9194 -3.9194
-0.746228 -3.9762 -3.9762
-0.653438 -4.03432 -4.03432
-0.55081 -3.97696 -3.97696
-0.643499 -3.9189 -3.9189
-0.648467 -3.97643 -3.97643
-0.751805 -4.03406 -4.03406
-0.76296 -4.15084 -4.15084
-0.563917 -4.15182 -4.15182
-0.555174 -4.03489 -4.03489
-0.757383 -4.09227 -4.09227
-0.663386 -4.15118 -4.15118
-0.559543 -4.09318 -4.09318
-0.653438 -4.03432 -4.03432
-0.658411 -4.09257 -4.09257
-0.76296 -4.15084 -4.15084
-0.774116 -4.26905 -4.26905
-0.572679 -4.27016 -4.27016
-0.563917 -4.15182 -4.15182
-0.768538 -4.20977 -4.20977
-0.673345 -4.26946 -4.26946
-0.568296 -4.21081 -4.21081
-0.663386 -4.15118 -4.15118
-0.668364 -4.21014 -4.21014
-0.774116 -4.26905 -4.26905
-0.785274 -4.38867 -4.38867
-0.581462 -4.38992 -4.38992
-0.572679 -4.27016 -4.27016
-0.779695 -4.32868 -4.32868
-0.683315 -4.38914 -4.38914
-0.577068 -4.32987 -4.32987
-0.673345 -4.26946 -4.26946
-0.678329 -4.32912 -4.32912
-0.785274 -4.38867 -4.38867
-0.796434 -4.50968 -4.50968
-0.590265 -4.51108 -4.51108
-0.581462 -4.38992 -4.38992
-0.790854 -4.449 -4.449
-0.693297 -4.51023 -4.51023
-0.585861 -4.45032 -4.45032
-0.683315 -4.38914 -4.38914
-0.688305 -4.44951 -4.44951
-0.796434 -4.50968 -4.50968
-0.807596 -4.63209 -4.63209
-0.599088 -4.63362 -4.63362
-0.590265 -4.51108 -4.51108
-0.802014 -4.57071 -4.57071
-0.703289 -4.63271 -4.63271
-0.594674 -4.57218 -4.57218
-0.693297 -4.51023 -4.51023
-0.698292 -4.5713 -4.5713
-0.807596 -4.63209 -4.63209
-0.81876 -4.75587 -4.75587
-0.607932 -4.75755 -4.75755
-0.599088 -4.63362 -4.63362
-0.813177 -4.69381 -4.69381
-0.713294 -4.75656 -4.75656
-0.603508 -4.69541 -4.69541
-0.703289 -4.63271 -4.63271
-0.70829 -4.69446 -4.69446
-0.81876 -4.75587 -4.75587
-0.829927 -4.88102 -4.88102
-0.616798 -4.88284 -4.88284
-0.607932 -4.75755 -4.75755
-0.824343 -4.81827 -4.81827
-0.72331 -4.88178 -4.88178
-0.612363 -4.82002 -4.82002
-0.713294 -4.75656 -4.75656
-0.7183 -4.819 -4.819
-0.829927 -4.88102 -4.88102
-0.841097 -5.00752 -5.00752
-0.625685 -5.00949 -5.00949
-0.616798 -4.88284 -4.88284
-0.835511 -4.9441 -4.9441
-0.733338 -5.00836 -5.00836
-0.621239 -4.94599 -4.94599
-0.72331 -4.88178 -4.88178
-0.728323 -4.9449 -4.9449
-0.841097 -5.00752 -5.00752
-0.852269 -5.13537 -5.13537
-0.634593 -5.13748 -5.13748
-0.625685 -5.00949 -5.00949
-0.846683 -5.07128 -5.07128
-0.743379 -5.13629 -5.13629
-0.630136 -5.07331 -5.07331
-0.733338 -5.00836 -5.00836
-0.738357 -5.07216 -5.07216
-0.852269 -5.13537 -5.13537
-0.863445 -5.26456 -5.26456
-0.643523 -5.26681 -5.26681
-0.634593 -5.13748 -5.13748
-0.857857 -5.1998 -5.1998
-0.753432 -5.26554 -5.26554
-0.639055 -5.20198 -5.20198
-0.743379 -5.13629 -5.13629
-0.748404 -5.20075 -5.20075
-0.863445 -5.26456 -5.26456
-0.874625 -5.39507 -5.39507
-0.652475 -5.39746 -5.39746
-0.643523 -5.26681 -5.26681
-0.869035 -5.32965 -5.32965
-0.763497 -5.39612 -5.39612
-0.647996 -5.33197 -5.33197
-0.753432 -5.26554 -5.26554
-0.758463 -5.33067 -5.33067
-0.874625 -5.39507 -5.39507
-0.885807 -5.52689 -5.52689
-0.661448 -5.52942 -5.52942
-0.652475 -5.39746 -5.39746
-0.880216 -5.46082 -5.46082
-0.773575 -5.52802 -5.52802
-0.656959 -5.46328 -5.46328