<?xml version="1.0"?>
<VTKFile type="UnstructuredGrid">
  <UnstructuredGrid>
  <Piece NumberOfPoints="12411"  NumberOfCells="1379">
    <Points>
      <DataArray type="Float64" NumberOfComponents="3" format="ascii">
0 0 0
2.53499 -0.00153554 0
2.53624 4.2852 0
0 4.28571 0
1.26736 -0.000957189 0
2.53575 2.14193 0
1.26815 4.28553 0
0 2.14286 0
1.26793 2.14245 0
2.53499 -0.00153554 0
5.0704 -0.002667 0
5.07232 4.28422 0
2.53624 4.2852 0
3.80269 -0.0020799 0
5.07141 2.14083 0
3.80429 4.28475 0
2.53575 2.14193 0
3.80358 2.1414 0
5.0704 -0.002667 0
7.60579 -0.00403204 0
7.60839 4.28287 0
5.07232 4.28422 0
6.3381 -0.00330953 0
7.6071 2.13946 0
6.34035 4.28359 0
5.07141 2.14083 0
6.33925 2.14019 0
7.60579 -0.00403204 0
10.1412 -0.00578856 0
10.1445 4.28112 0
7.60839 4.28287 0
8.87347 -0.00485724 0
10.1428 2.13771 0
8.87643 4.28205 0
7.6071 2.13946 0
8.87496 2.13864 0
10.1412 -0.00578856 0
12.6765 -0.00797284 0
12.6806 4.27893 0
10.1445 4.28112 0
11.4088 -0.00682574 0
12.6785 2.13552 0
11.4125 4.28008 0
10.1428 2.13771 0
11.4107 2.13667 0
12.6765 -0.00797284 0
15.2118 -0.0106094 0
15.2167 4.27629 0
12.6806 4.27893 0
13.9442 -0.00923402 0
15.2143 2.13289 0
13.9486 4.27767 0
12.6785 2.13552 0
13.9464 2.13426 0
15.2118 -0.0106094 0
17.7472 -0.0137017 0
17.7528 4.27319 0
15.2167 4.27629 0
16.4795 -0.0120984 0
17.75 2.12979 0
16.4847 4.2748 0
15.2143 2.13289 0
16.4821 2.1314 0
17.7472 -0.0137017 0
20.2826 -0.0172526 0
20.2889 4.26963 0
17.7528 4.27319 0
19.0149 -0.0154198 0
20.2857 2.12624 0
19.0208 4.27147 0
17.75 2.12979 0
19.0179 2.12807 0
20.2826 -0.0172526 0
22.8179 -0.0212604 0
22.8251 4.26562 0
20.2889 4.26963 0
21.5502 -0.0191995 0
22.8215 2.12223 0
21.557 4.26768 0
20.2857 2.12624 0
21.5536 2.12429 0
22.8179 -0.0212604 0
25.3533 -0.0257235 0
25.3612 4.26115 0
22.8251 4.26562 0
24.0856 -0.0234352 0
25.3573 2.11776 0
24.0931 4.26344 0
22.8215 2.12223 0
24.0894 2.12005 0
25.3533 -0.0257235 0
27.8887 -0.0306393 0
27.8974 4.25622 0
25.3612 4.26115 0
26.621 -0.0281249 0
27.893 2.11284 0
26.6293 4.25874 0
25.3573 2.11776 0
26.6252 2.11536 0
27.8887 -0.0306393 0
30.4241 -0.0360054 0
30.4335 4.25085 0
27.8974 4.25622 0
29.1564 -0.0332662 0
30.4288 2.10747 0
29.1654 4.25359 0
27.893 2.11284 0
29.1609 2.11021 0
30.4241 -0.0360054 0
32.9595 -0.0418193 0
32.9697 4.24503 0
30.4335 4.25085 0
31.6918 -0.0388565 0
32.9646 2.10165 0
31.7016 4.24799 0
30.4288 2.10747 0
31.6967 2.10462 0
32.9595 -0.0418193 0
35.495 -0.0480786 0
35.5059 4.23876 0
32.9697 4.24503 0
34.2273 -0.0448934 0
35.5004 2.09539 0
34.2378 4.24195 0
32.9646 2.10165 0
34.2325 2.09857 0
35.495 -0.0480786 0
38.0304 -0.0547806 0
38.0421 4.23205 0
35.5059 4.23876 0
36.7627 -0.0513744 0
38.0363 2.08868 0
36.774 4.23546 0
35.5004 2.09539 0
36.7684 2.09209 0
38.0304 -0.0547806 0
40.5659 -0.0619231 0
40.5783 4.2249 0
38.0421 4.23205 0
39.2982 -0.058297 0
40.5721 2.08153 0
39.3102 4.22853 0
38.0363 2.08868 0
39.3042 2.08516 0
40.5659 -0.0619231 0
43.1014 -0.0695036 0
43.1145 4.21731 0
40.5783 4.2249 0
41.8336 -0.0656587 0
43.1079 2.07395 0
41.8464 4.22116 0
40.5721 2.08153 0
41.84 2.0778 0
43.1014 -0.0695036 0
45.6368 -0.0775195 0
45.6507 4.20928 0
43.1145 4.21731 0
44.3691 -0.0734573 0
45.6438 2.06593 0
44.3826 4.21335 0
43.1079 2.07395 0
44.3759 2.06999 0
45.6368 -0.0775195 0
48.1723 -0.0859687 0
48.187 4.20083 0
45.6507 4.20928 0
46.9046 -0.0816901 0
48.1797 2.05748 0
46.9188 4.20511 0
45.6438 2.06593 0
46.9117 2.06176 0
48.1723 -0.0859687 0
50.7079 -0.0948485 0
50.7232 4.19194 0
48.187 4.20083 0
49.4401 -0.0903549 0
50.7155 2.04859 0
49.4551 4.19644 0
48.1797 2.05748 0
49.4476 2.05309 0
50.7079 -0.0948485 0
53.2434 -0.104157 0
53.2594 4.18262 0
50.7232 4.19194 0
51.9756 -0.0994492 0
53.2514 2.03928 0
51.9913 4.18733 0
50.7155 2.04859 0
51.9835 2.04399 0
53.2434 -0.104157 0
55.7789 -0.113891 0
55.7957 4.17288 0
53.2594 4.18262 0
54.5112 -0.108971 0
55.7873 2.02954 0
54.5276 4.1778 0
53.2514 2.03928 0
54.5194 2.03446 0
55.7789 -0.113891 0
58.3145 -0.124048 0
58.332 4.16271 0
55.7957 4.17288 0
57.0467 -0.118917 0
58.3232 2.01938 0
57.0638 4.16785 0
55.7873 2.02954 0
57.0553 2.02451 0
58.3145 -0.124048 0
60.85 -0.134627 0
60.8682 4.15212 0
58.332 4.16271 0
59.5823 -0.129285 0
60.8592 2.00879 0
59.6001 4.15747 0
58.3232 2.01938 0
59.5912 2.01414 0
60.85 -0.134627 0
63.3856 -0.145624 0
63.4045 4.14112 0
60.8682 4.15212 0
62.1178 -0.140073 0
63.3951 1.99779 0
62.1364 4.14667 0
60.8592 2.00879 0
62.1271 2.00334 0
63.3856 -0.145624 0
65.9212 -0.157037 0
65.9408 4.12969 0
63.4045 4.14112 0
64.6534 -0.151278 0
65.931 1.98637 0
64.6727 4.13546 0
63.3951 1.99779 0
64.6631 1.99213 0
65.9212 -0.157037 0
68.4568 -0.168864 0
68.4771 4.11786 0
65.9408 4.12969 0
67.189 -0.162899 0
68.467 1.97454 0
67.209 4.12383 0
65.931 1.98637 0
67.199 1.98051 0
68.4568 -0.168864 0
70.9924 -0.181103 0
71.0134 4.10561 0
68.4771 4.11786 0
69.7246 -0.174932 0
71.0029 1.9623 0
69.7453 4.11179 0
68.467 1.97454 0
69.735 1.96847 0
70.9924 -0.181103 0
73.5281 -0.19375 0
73.5497 4.09295 0
71.0134 4.10561 0
72.2602 -0.187376 0
73.5389 1.94964 0
72.2816 4.09933 0
71.0029 1.9623 0
72.2709 1.95602 0
73.5281 -0.19375 0
76.0637 -0.206804 0
76.0861 4.07989 0
73.5497 4.09295 0
74.7959 -0.200227 0
76.0749 1.93659 0
74.8179 4.08647 0
73.5389 1.94964 0
74.8069 1.94317 0
76.0637 -0.206804 0
78.5993 -0.220263 0
78.6224 4.06642 0
76.0861 4.07989 0
77.3315 -0.213483 0
78.6109 1.92312 0
77.3542 4.07321 0
76.0749 1.93659 0
77.3429 1.9299 0
78.5993 -0.220263 0
81.135 -0.234122 0
81.1587 4.05255 0
78.6224 4.06642 0
79.8672 -0.227142 0
81.1469 1.90926 0
79.8906 4.05954 0
78.6109 1.92312 0
79.8789 1.91624 0
81.135 -0.234122 0
83.6707 -0.248382 0
83.6951 4.03828 0
81.1587 4.05255 0
82.4028 -0.241202 0
83.6829 1.89499 0
82.4269 4.04547 0
81.1469 1.90926 0
82.4149 1.90217 0
83.6707 -0.248382 0
86.2064 -0.263038 0
86.2314 4.02362 0
83.6951 4.03828 0
84.9385 -0.25566 0
86.2189 1.88033 0
84.9633 4.031 0
83.6829 1.89499 0
84.9509 1.88771 0
86.2064 -0.263038 0
88.7421 -0.278088 0
88.7678 4.00856 0
86.2314 4.02362 0
87.4742 -0.270514 0
88.7549 1.86528 0
87.4996 4.01613 0
86.2189 1.88033 0
87.4869 1.87285 0
88.7421 -0.278088 0
91.2778 -0.293531 0
91.3042 3.9931 0
88.7678 4.00856 0
90.0099 -0.285761 0
91.291 1.84983 0
90.036 4.00088 0
88.7549 1.86528 0
90.023 1.8576 0
91.2778 -0.293531 0
93.8135 -0.309363 0
93.8406 3.97726 0
91.3042 3.9931 0
92.5456 -0.301399 0
93.827 1.83399 0
92.5724 3.98523 0
91.291 1.84983 0
92.559 1.84196 0
93.8135 -0.309363 0
96.3492 -0.325583 0
96.3769 3.96103 0
93.8406 3.97726 0
95.0814 -0.317425 0
96.3631 1.81776 0
95.1087 3.96919 0
93.827 1.83399 0
95.0951 1.82593 0
96.3492 -0.325583 0
98.885 -0.342187 0
98.9133 3.94441 0
96.3769 3.96103 0
97.6171 -0.333837 0
98.8992 1.80115 0
97.6451 3.95277 0
96.3631 1.81776 0
97.6311 1.80951 0
98.885 -0.342187 0
101.421 -0.359174 0
101.45 3.92742 0
98.9133 3.94441 0
100.153 -0.350633 0
101.435 1.78416 0
100.182 3.93596 0
98.8992 1.80115 0
100.167 1.79271 0
101.421 -0.359174 0
103.957 -0.376541 0
103.986 3.91004 0
101.45 3.92742 0
102.689 -0.36781 0
103.971 1.76679 0
102.718 3.91878 0
101.435 1.78416 0
102.703 1.77552 0
103.957 -0.376541 0
106.492 -0.394285 0
106.523 3.89229 0
103.986 3.91004 0
105.224 -0.385366 0
106.507 1.74904 0
105.254 3.90121 0
103.971 1.76679 0
105.239 1.75796 0
106.492 -0.394285 0
109.028 -0.412405 0
109.059 3.87416 0
106.523 3.89229 0
107.76 -0.403298 0
109.044 1.73092 0
107.791 3.88327 0
106.507 1.74904 0
107.776 1.74002 0
109.028 -0.412405 0
111.564 -0.430897 0
111.595 3.85565 0
109.059 3.87416 0
110.296 -0.421604 0
111.58 1.71242 0
110.327 3.86495 0
109.044 1.73092 0
110.312 1.72171 0
111.564 -0.430897 0
114.1 -0.449759 0
114.132 3.83678 0
111.595 3.85565 0
112.832 -0.440282 0
114.116 1.69355 0
112.864 3.84626 0
111.58 1.71242 0
112.848 1.70303 0
114.1 -0.449759 0
116.636 -0.46899 0
116.668 3.81754 0
114.132 3.83678 0
115.368 -0.459329 0
116.652 1.67431 0
115.4 3.8272 0
114.116 1.69355 0
115.384 1.68398 0
116.636 -0.46899 0
119.171 -0.488586 0
119.205 3.79793 0
116.668 3.81754 0
117.903 -0.478742 0
119.188 1.65471 0
117.937 3.80778 0
116.652 1.67431 0
117.92 1.66456 0
119.171 -0.488586 0
121.707 -0.508545 0
121.741 3.77796 0
119.205 3.79793 0
120.439 -0.49852 0
121.724 1.63475 0
120.473 3.78799 0
119.188 1.65471 0
120.456 1.64477 0
121.707 -0.508545 0
124.243 -0.528864 0
124.278 3.75763 0
121.741 3.77796 0
122.975 -0.518659 0
124.26 1.61442 0
123.009 3.76784 0
121.724 1.63475 0
122.992 1.62463 0
124.243 -0.528864 0
126.779 -0.549542 0
126.814 3.73694 0
124.278 3.75763 0
125.511 -0.539158 0
126.797 1.59374 0
125.546 3.74733 0
124.26 1.61442 0
125.529 1.60412 0
126.779 -0.549542 0
129.315 -0.570576 0
129.351 3.7159 0
126.814 3.73694 0
128.047 -0.560015 0
129.333 1.5727 0
128.082 3.72646 0
126.797 1.59374 0
128.065 1.58326 0
129.315 -0.570576 0
131.851 -0.591963 0
131.887 3.6945 0
129.351 3.7159 0
130.583 -0.581225 0
131.869 1.55131 0
130.619 3.70524 0
129.333 1.5727 0
130.601 1.56205 0
131.851 -0.591963 0
134.387 -0.613701 0
134.424 3.67275 0
131.887 3.6945 0
133.119 -0.602788 0
134.405 1.52956 0
133.155 3.68367 0
131.869 1.55131 0
133.137 1.54048 0
134.387 -0.613701 0
136.923 -0.635787 0
136.96 3.65065 0
134.424 3.67275 0
135.655 -0.624701 0
136.941 1.50747 0
135.692 3.66174 0
134.405 1.52956 0
135.673 1.51856 0
136.923 -0.635787 0
139.459 -0.65822 0
139.497 3.62821 0
136.96 3.65065 0
138.191 -0.646961 0
139.478 1.48503 0
138.228 3.63947 0
136.941 1.50747 0
138.21 1.49629 0
139.459 -0.65822 0
141.994 -0.680997 0
142.033 3.60542 0
139.497 3.62821 0
140.726 -0.669566 0
142.014 1.46225 0
140.765 3.61686 0
139.478 1.48503 0
140.746 1.47368 0
141.994 -0.680997 0
144.53 -0.704115 0
144.57 3.58229 0
142.033 3.60542 0
143.262 -0.692513 0
144.55 1.43912 0
143.301 3.5939 0
142.014 1.46225 0
143.282 1.45073 0
144.53 -0.704115 0
147.066 -0.727571 0
147.106 3.55882 0
144.57 3.58229 0
145.798 -0.715801 0
147.086 1.41566 0
145.838 3.5706 0
144.55 1.43912 0
145.818 1.42743 0
147.066 -0.727571 0
149.602 -0.751365 0
149.643 3.53502 0
147.106 3.55882 0
148.334 -0.739426 0
[...]
    <PointData>
      <DataArray type="Float64" NumberOfComponents="3" Name="Displacement" format="ascii">
0 0 0
-0.00307713 -0.00153554 -0.00153554
-0.00183442 -0.000518904 -0.000518904
0 0 0
-0.00167431 -0.000957189 -0.000957189
-0.00231742 -0.000928093 -0.000928093
-0.000890156 -0.000185982 -0.000185982
0 0 0
-0.00110524 -0.00040907 -0.00040907
-0.00307713 -0.00153554 -0.00153554
-0.0057397 -0.002667 -0.002667
-0.00382068 -0.00149825 -0.00149825
-0.00183442 -0.000518904 -0.000518904
-0.00441234 -0.0020799 -0.0020799
-0.00473186 -0.00202341 -0.00202341
-0.0028181 -0.000961279 -0.000961279
-0.00231742 -0.000928093 -0.000928093
-0.00353145 -0.00145925 -0.00145925
-0.0057397 -0.002667 -0.002667
-0.00842565 -0.00403204 -0.00403204
-0.00582485 -0.00284386 -0.00284386
-0.00382068 -0.00149825 -0.00149825
-0.00707793 -0.00330953 -0.00330953
-0.00711094 -0.00339311 -0.00339311
-0.00482396 -0.0021237 -0.0021237
-0.00473186 -0.00202341 -0.00202341
-0.00592451 -0.00266364 -0.00266364
-0.00842565 -0.00403204 -0.00403204
-0.0111336 -0.00578856 -0.00578856
-0.007819 -0.00459645 -0.00459645
-0.00582485 -0.00284386 -0.00284386
-0.00977765 -0.00485724 -0.00485724
-0.00946963 -0.00514566 -0.00514566
-0.00682365 -0.0036669 -0.0036669
-0.00711094 -0.00339311 -0.00339311
-0.00829197 -0.00421791 -0.00421791
-0.0111336 -0.00578856 -0.00578856
-0.0138559 -0.00797284 -0.00797284
-0.0097963 -0.00678506 -0.00678506
-0.007819 -0.00459645 -0.00459645
-0.0124937 -0.00682574 -0.00682574
-0.0118203 -0.0073325 -0.0073325
-0.00880964 -0.00563501 -0.00563501
-0.00946963 -0.00514566 -0.00514566
-0.0106458 -0.00618319 -0.00618319
-0.0138559 -0.00797284 -0.00797284
-0.0165792 -0.0106094 -0.0106094
-0.0117607 -0.00942646 -0.00942646
-0.0097963 -0.00678506 -0.00678506
-0.0152179 -0.00923402 -0.00923402
-0.0141632 -0.00997008 -0.00997008
-0.01078 -0.00804868 -0.00804868
-0.0118203 -0.0073325 -0.0073325
-0.0129927 -0.00859443 -0.00859443
-0.0165792 -0.0106094 -0.0106094
-0.0192989 -0.0137017 -0.0137017
-0.0137131 -0.0125254 -0.0125254
-0.0117607 -0.00942646 -0.00942646
-0.0179398 -0.0120984 -0.0120984
-0.0164981 -0.0130654 -0.0130654
-0.0127383 -0.0109186 -0.0109186
-0.0141632 -0.00997008 -0.00997008
-0.0153317 -0.0114604 -0.0114604
-0.0192989 -0.0137017 -0.0137017
-0.0220098 -0.0172526 -0.0172526
-0.015655 -0.0160832 -0.0160832
-0.0137131 -0.0125254 -0.0125254
-0.0206556 -0.0154198 -0.0154198
-0.0188236 -0.0166194 -0.0166194
-0.0146853 -0.014247 -0.014247
-0.0164981 -0.0130654 -0.0130654
-0.0176621 -0.0147851 -0.0147851
-0.0220098 -0.0172526 -0.0172526
-0.02471 -0.0212604 -0.0212604
-0.0175868 -0.0200984 -0.0200984
-0.015655 -0.0160832 -0.0160832
-0.0233613 -0.0191995 -0.0191995
-0.021139 -0.0206309 -0.0206309
-0.0166222 -0.0180337 -0.0180337
-0.0188236 -0.0166194 -0.0166194
-0.0199826 -0.0185681 -0.0185681
-0.02471 -0.0212604 -0.0212604
-0.027398 -0.0257235 -0.0257235
-0.019509 -0.0245689 -0.0245689
-0.0175868 -0.0200984 -0.0200984
-0.0260556 -0.0234352 -0.0234352
-0.0234438 -0.0250978 -0.0250978
-0.0185491 -0.0222769 -0.0222769
-0.021139 -0.0206309 -0.0206309
-0.0222928 -0.0228076 -0.0228076
-0.027398 -0.0257235 -0.0257235
-0.0300732 -0.0306393 -0.0306393
-0.0214217 -0.0294925 -0.0294925
-0.019509 -0.0245689 -0.0245689
-0.0287372 -0.0281249 -0.0281249
-0.0257375 -0.0300177 -0.0300177
-0.0204665 -0.0269742 -0.0269742
-0.0234438 -0.0250978 -0.0250978
-0.024592 -0.0275013 -0.0275013
-0.0300732 -0.0306393 -0.0306393
-0.0327352 -0.0360054 -0.0360054
-0.0233251 -0.0348664 -0.0348664
-0.0214217 -0.0294925 -0.0294925
-0.0314058 -0.0332662 -0.0332662
-0.0280201 -0.035388 -0.035388
-0.0223745 -0.0321233 -0.0321233
-0.0257375 -0.0300177 -0.0300177
-0.0268802 -0.0326467 -0.0326467
-0.0327352 -0.0360054 -0.0360054
-0.035384 -0.0418193 -0.0418193
-0.0252191 -0.0406883 -0.0406883
-0.0233251 -0.0348664 -0.0348664
-0.0340613 -0.0388565 -0.0388565
-0.0302914 -0.0412061 -0.0412061
-0.0242733 -0.0377215 -0.0377215
-0.0280201 -0.035388 -0.035388
-0.0291571 -0.0382412 -0.0382412
-0.035384 -0.0418193 -0.0418193
-0.0380196 -0.0480786 -0.0480786
-0.027104 -0.0469556 -0.0469556
-0.0252191 -0.0406883 -0.0406883
-0.0367034 -0.0448934 -0.0448934
-0.0325516 -0.0474696 -0.0474696
-0.0261627 -0.0437664 -0.0437664
-0.0302914 -0.0412061 -0.0412061
-0.0314229 -0.0442823 -0.0442823
-0.0380196 -0.0480786 -0.0480786
-0.0406419 -0.0547806 -0.0547806
-0.0289798 -0.0536658 -0.0536658
-0.027104 -0.0469556 -0.0469556
-0.0393324 -0.0513744 -0.0513744
-0.0348007 -0.054176 -0.054176
-0.0280431 -0.0502555 -0.0502555
-0.0325516 -0.0474696 -0.0474696
-0.0336775 -0.0507676 -0.0507676
-0.0406419 -0.0547806 -0.0547806
-0.0432511 -0.0619231 -0.0619231
-0.0308466 -0.0608166 -0.0608166
-0.0289798 -0.0536658 -0.0536658
-0.0419482 -0.058297 -0.058297
-0.0370387 -0.0613229 -0.0613229
-0.0299143 -0.0571863 -0.0571863
-0.0348007 -0.054176 -0.054176
-0.0359211 -0.0576946 -0.0576946
-0.0432511 -0.0619231 -0.0619231
-0.0458473 -0.0695036 -0.0695036
-0.0327044 -0.0684055 -0.0684055
-0.0308466 -0.0608166 -0.0608166
-0.0445508 -0.0656587 -0.0656587
-0.0392656 -0.0689078 -0.0689078
-0.0317766 -0.0645564 -0.0645564
-0.0370387 -0.0613229 -0.0613229
-0.0381535 -0.0650608 -0.0650608
-0.0458473 -0.0695036 -0.0695036
-0.0484304 -0.0775195 -0.0775195
-0.0345533 -0.07643 -0.07643
-0.0327044 -0.0684055 -0.0684055
-0.0471404 -0.0734573 -0.0734573
-0.0414816 -0.0769284 -0.0769284
-0.0336299 -0.0723634 -0.0723634
-0.0392656 -0.0689078 -0.0689078
-0.040375 -0.0728638 -0.0728638
-0.0484304 -0.0775195 -0.0775195
-0.0510006 -0.0859687 -0.0859687
-0.0363933 -0.0848878 -0.0848878
-0.0345533 -0.07643 -0.07643
-0.0497171 -0.0816901 -0.0816901
-0.0436867 -0.0853821 -0.0853821
-0.0354744 -0.0806049 -0.0806049
-0.0414816 -0.0769284 -0.0769284
-0.0425855 -0.0811012 -0.0811012
-0.0510006 -0.0859687 -0.0859687
-0.0535579 -0.0948485 -0.0948485
-0.0382246 -0.0937763 -0.0937763
-0.0363933 -0.0848878 -0.0848878
-0.0522809 -0.0903549 -0.0903549
-0.0458811 -0.0942665 -0.0942665
-0.0373101 -0.0892783 -0.0892783
-0.0436867 -0.0853821 -0.0853821
-0.0447853 -0.0897706 -0.0897706
-0.0535579 -0.0948485 -0.0948485
-0.0561025 -0.104157 -0.104157
-0.0400472 -0.103093 -0.103093
-0.0382246 -0.0937763 -0.0937763
-0.0548318 -0.0994492 -0.0994492
-0.0480646 -0.103579 -0.103579
-0.039137 -0.0983814 -0.0983814
-0.0458811 -0.0942665 -0.0942665
-0.0469742 -0.0988695 -0.0988695
-0.0561025 -0.104157 -0.104157
-0.0586343 -0.113891 -0.113891
-0.0418612 -0.112836 -0.112836
-0.0400472 -0.103093 -0.103093
-0.05737 -0.108971 -0.108971
-0.0502375 -0.113318 -0.113318
-0.0409553 -0.107912 -0.107912
-0.0480646 -0.103579 -0.103579
-0.0491524 -0.108396 -0.108396
-0.0586343 -0.113891 -0.113891
-0.0611534 -0.124048 -0.124048
-0.0436665 -0.123003 -0.123003
-0.0418612 -0.112836 -0.112836
-0.0598954 -0.118917 -0.118917
-0.0523997 -0.12348 -0.12348
-0.0427649 -0.117867 -0.117867
-0.0502375 -0.113318 -0.113318
-0.0513199 -0.118346 -0.118346
-0.0611534 -0.124048 -0.124048
-0.0636599 -0.134627 -0.134627
-0.0454634 -0.13359 -0.13359
-0.0436665 -0.123003 -0.123003
-0.0624083 -0.129285 -0.129285
-0.0545514 -0.134064 -0.134064
-0.044566 -0.128244 -0.128244
-0.0523997 -0.12348 -0.12348
-0.0534769 -0.12872 -0.12872
-0.0636599 -0.134627 -0.134627
-0.0661539 -0.145624 -0.145624
-0.0472517 -0.144597 -0.144597
-0.0454634 -0.13359 -0.13359
-0.0649085 -0.140073 -0.140073
-0.0566926 -0.145066 -0.145066
-0.0463586 -0.139041 -0.139041
-0.0545514 -0.134064 -0.134064
-0.0556233 -0.139512 -0.139512
-0.0661539 -0.145624 -0.145624
-0.0686354 -0.157037 -0.157037
-0.0490317 -0.15602 -0.15602
-0.0472517 -0.144597 -0.144597
-0.0673962 -0.151278 -0.151278
-0.0588233 -0.156484 -0.156484
-0.0481428 -0.150256 -0.150256
-0.0566926 -0.145066 -0.145066
-0.0577592 -0.150723 -0.150723
-0.0686354 -0.157037 -0.157037
-0.0711044 -0.168864 -0.168864
-0.0508034 -0.167856 -0.167856
-0.0490317 -0.15602 -0.15602
-0.0698714 -0.162899 -0.162899
-0.0609436 -0.168316 -0.168316
-0.0499186 -0.161886 -0.161886
-0.0588233 -0.156484 -0.156484
-0.0598848 -0.162348 -0.162348
-0.0711044 -0.168864 -0.168864
-0.0735611 -0.181103 -0.181103
-0.0525667 -0.180104 -0.180104
-0.0508034 -0.167856 -0.167856
-0.0723343 -0.174932 -0.174932
-0.0630536 -0.18056 -0.18056
-0.0516861 -0.173929 -0.173929
-0.0609436 -0.168316 -0.168316
-0.0619999 -0.174387 -0.174387
-0.0735611 -0.181103 -0.181103
-0.0760054 -0.19375 -0.19375
-0.0543219 -0.192761 -0.192761
-0.0525667 -0.180104 -0.180104
-0.0747848 -0.187376 -0.187376
-0.0651533 -0.193212 -0.193212
-0.0534453 -0.186382 -0.186382
-0.0630536 -0.18056 -0.18056
-0.0641048 -0.186835 -0.186835
-0.0760054 -0.19375 -0.19375
-0.0784375 -0.206804 -0.206804
-0.0560688 -0.205825 -0.205825
-0.0543219 -0.192761 -0.192761
-0.077223 -0.200227 -0.200227
-0.0672428 -0.206272 -0.206272
-0.0551963 -0.199243 -0.199243
-0.0651533 -0.193212 -0.193212
-0.0661994 -0.199691 -0.199691
-0.0784375 -0.206804 -0.206804
-0.0808573 -0.220263 -0.220263
-0.0578076 -0.219293 -0.219293
-0.0560688 -0.205825 -0.205825
-0.0796489 -0.213483 -0.213483
-0.0693222 -0.219735 -0.219735
-0.0569392 -0.212509 -0.212509
-0.0672428 -0.206272 -0.206272
-0.0682838 -0.212953 -0.212953
-0.0808573 -0.220263 -0.220263
-0.083265 -0.234122 -0.234122
-0.0595383 -0.233163 -0.233163
-0.0578076 -0.219293 -0.219293
-0.0820626 -0.227142 -0.227142
-0.0713914 -0.2336 -0.2336
-0.058674 -0.226178 -0.226178
-0.0693222 -0.219735 -0.219735
-0.070358 -0.226617 -0.226617
-0.083265 -0.234122 -0.234122
-0.0856605 -0.248382 -0.248382
-0.0612611 -0.247432 -0.247432
-0.0595383 -0.233163 -0.233163
-0.0844643 -0.241202 -0.241202
-0.0734505 -0.247865 -0.247865
-0.0604007 -0.240248 -0.240248
-0.0713914 -0.2336 -0.2336
-0.0724222 -0.240683 -0.240683
-0.0856605 -0.248382 -0.248382
-0.088044 -0.263038 -0.263038
-0.0629758 -0.262099 -0.262099
-0.0612611 -0.247432 -0.247432
-0.0868538 -0.25566 -0.25566
-0.0754996 -0.262526 -0.262526
-0.0621194 -0.254716 -0.254716
-0.0734505 -0.247865 -0.247865
-0.0744763 -0.255146 -0.255146
-0.088044 -0.263038 -0.263038
-0.0904155 -0.278088 -0.278088
-0.0646826 -0.277159 -0.277159
-0.0629758 -0.262099 -0.262099
-0.0892312 -0.270514 -0.270514
-0.0775387 -0.277582 -0.277582
-0.0638302 -0.26958 -0.26958
-0.0754996 -0.262526 -0.262526
-0.0765204 -0.270005 -0.270005
-0.0904155 -0.278088 -0.278088
-0.0927749 -0.293531 -0.293531
-0.0663815 -0.292612 -0.292612
-0.0646826 -0.277159 -0.277159
-0.0915967 -0.285761 -0.285761
-0.0795679 -0.29303 -0.29303
-0.0655331 -0.284837 -0.284837
-0.0775387 -0.277582 -0.277582
-0.0785546 -0.285257 -0.285257
-0.0927749 -0.293531 -0.293531
-0.0951225 -0.309363 -0.309363
-0.0680726 -0.308455 -0.308455
-0.0663815 -0.292612 -0.292612
-0.0939502 -0.301399 -0.301399
-0.0815872 -0.308868 -0.308868
-0.0672281 -0.300485 -0.300485
-0.0795679 -0.29303 -0.29303
-0.0805788 -0.3009 -0.3009
-0.0951225 -0.309363 -0.309363
-0.0974582 -0.325583 -0.325583
-0.0697559 -0.324685 -0.324685
-0.0680726 -0.308455 -0.308455
-0.0962918 -0.317425 -0.317425
-0.0835967 -0.325093 -0.325093
-0.0689152 -0.316521 -0.316521
-0.0815872 -0.308868 -0.308868
-0.0825932 -0.316932 -0.316932
-0.0974582 -0.325583 -0.325583
-0.099782 -0.342187 -0.342187
-0.0714315 -0.3413 -0.3413
-0.0697559 -0.324685 -0.324685
-0.0986215 -0.333837 -0.333837
-0.0855964 -0.341703 -0.341703
-0.0705947 -0.332944 -0.332944
-0.0835967 -0.325093 -0.325093
-0.0845978 -0.33335 -0.33335
-0.099782 -0.342187 -0.342187
-0.102094 -0.359174 -0.359174
-0.0730993 -0.358297 -0.358297
-0.0714315 -0.3413 -0.3413
-0.100939 -0.350633 -0.350633
-0.0875863 -0.358695 -0.358695
-0.0722664 -0.349751 -0.349751
-0.0855964 -0.341703 -0.341703
-0.0865926 -0.350151 -0.350151
-0.102094 -0.359174 -0.359174
-0.104394 -0.376541 -0.376541
-0.0747595 -0.375674 -0.375674
-0.0730993 -0.358297 -0.358297
-0.103246 -0.36781 -0.36781
-0.0895666 -0.376067 -0.376067
-0.0739304 -0.366938 -0.366938
-0.0875863 -0.358695 -0.358695
-0.0885777 -0.367334 -0.367334
-0.104394 -0.376541 -0.376541
-0.106683 -0.394285 -0.394285
-0.0764121 -0.393429 -0.393429
-0.0747595 -0.375674 -0.375674
-0.10554 -0.385366 -0.385366
-0.0915371 -0.393817 -0.393817
-0.0755867 -0.384505 -0.384505
-0.0895666 -0.376067 -0.376067
-0.090553 -0.384895 -0.384895
-0.106683 -0.394285 -0.394285
-0.10896 -0.412405 -0.412405
-0.078057 -0.411559 -0.411559
-0.0764121 -0.393429 -0.393429
-0.107823 -0.403298 -0.403298
-0.093498 -0.411942 -0.411942
-0.0772355 -0.402447 -0.402447
-0.0915371 -0.393817 -0.393817
-0.0925188 -0.402833 -0.402833
-0.10896 -0.412405 -0.412405
-0.111225 -0.430897 -0.430897
-0.0796945 -0.430062 -0.430062
-0.078057 -0.411559 -0.411559
-0.110094 -0.421604 -0.421604
-0.0954493 -0.43044 -0.43044
-0.0788767 -0.420764 -0.420764
-0.093498 -0.411942 -0.411942
-0.0944749 -0.421145 -0.421145
-0.111225 -0.430897 -0.430897
-0.113479 -0.449759 -0.449759
-0.0813244 -0.448936 -0.448936
-0.0796945 -0.430062 -0.430062
-0.112353 -0.440282 -0.440282
-0.0973911 -0.449308 -0.449308
-0.0805103 -0.439453 -0.439453
-0.0954493 -0.43044 -0.43044
-0.0964214 -0.439828 -0.439828
-0.113479 -0.449759 -0.449759
-0.115721 -0.46899 -0.46899
-0.0829468 -0.468177 -0.468177
-0.0813244 -0.448936 -0.448936
-0.114601 -0.459329 -0.459329
-0.0993234 -0.468544 -0.468544
-0.0821365 -0.45851 -0.45851
-0.0973911 -0.449308 -0.449308
-0.0983584 -0.45888 -0.45888
-0.115721 -0.46899 -0.46899
-0.117951 -0.488586 -0.488586
-0.0845618 -0.487784 -0.487784
-0.0829468 -0.468177 -0.468177
-0.116837 -0.478742 -0.478742
-0.101246 -0.488146 -0.488146
-0.0837552 -0.477935 -0.477935
-0.0993234 -0.468544 -0.468544
-0.100286 -0.478299 -0.478299
-0.117951 -0.488586 -0.488586
-0.12017 -0.508545 -0.508545
-0.0861694 -0.507754 -0.507754
-0.0845618 -0.487784 -0.487784
-0.119062 -0.49852 -0.49852
-0.103159 -0.508111 -0.508111
-0.0853665 -0.497724 -0.497724
-0.101246 -0.488146 -0.488146
-0.102204 -0.498083 -0.498083
-0.12017 -0.508545 -0.508545
-0.122378 -0.528864 -0.528864
-0.0877696 -0.528084 -0.528084
-0.0861694 -0.507754 -0.507754
-0.121275 -0.518659 -0.518659
-0.105063 -0.528436 -0.528436
-0.0869704 -0.517874 -0.517874
-0.103159 -0.508111 -0.508111
-0.104113 -0.518228 -0.518228
-0.122378 -0.528864 -0.528864
-0.124574 -0.549542 -0.549542
-0.0893625 -0.548773 -0.548773
-0.0877696 -0.528084 -0.528084
-0.123477 -0.539158 -0.539158
-0.106958 -0.54912 -0.54912
-0.088567 -0.538384 -0.538384
-0.105063 -0.528436 -0.528436
-0.106012 -0.538733 -0.538733
-0.124574 -0.549542 -0.549542
-0.126759 -0.570576 -0.570576
-0.090948 -0.569818 -0.569818
-0.0893625 -0.548773 -0.548773
-0.125668 -0.560015 -0.560015
-0.108843 -0.570159 -0.570159
-0.0901562 -0.559252 -0.559252
-0.106958 -0.54912 -0.54912
-0.107902 -0.559595 -0.559595
-0.126759 -0.570576 -0.570576
-0.128932 -0.591963 -0.591963
-0.0925263 -0.591217 -0.591217
-0.090948 -0.569818 -0.569818
-0.127847 -0.581225 -0.581225
-0.110719 -0.591552 -0.591552
-0.0917381 -0.580473 -0.580473
-0.108843 -0.570159 -0.570159
-0.109782 -0.580812 -0.580812
-0.128932 -0.591963 -0.591963
-0.131094 -0.613701 -0.613701
-0.0940974 -0.612966 -0.612966
-0.0925263 -0.591217 -0.591217
-0.130014 -0.602788 -0.602788
-0.112585 -0.613296 -0.613296
-0.0933127 -0.602048 -0.602048
-0.110719 -0.591552 -0.591552
-0.111653 -0.60238 -0.60238
-0.131094 -0.613701 -0.613701
-0.133245 -0.635787 -0.635787
-0.0956612 -0.635064 -0.635064
-0.0940974 -0.612966 -0.612966
-0.132171 -0.624701 -0.624701
-0.114443 -0.635389 -0.635389
-0.0948802 -0.623971 -0.623971
-0.112585 -0.613296 -0.613296
-0.113515 -0.624299 -0.624299
-0.133245 -0.635787 -0.635787
-0.135384 -0.65822 -0.65822
-0.0972178 -0.657508 -0.657508
-0.0956612 -0.635064 -0.635064
-0.134316 -0.646961 -0.646961
-0.11629 -0.657827 -0.657827
-0.0964404 -0.646243 -0.646243
-0.114443 -0.635389 -0.635389
-0.115368 -0.646565 -0.646565
-0.135384 -0.65822 -0.65822
-0.137512 -0.680997 -0.680997
-0.0987672 -0.680296 -0.680296
-0.0972178 -0.657508 -0.657508
-0.136449 -0.669566 -0.669566
-0.118129 -0.68061 -0.68061
-0.0979934 -0.668859 -0.668859
-0.11629 -0.657827 -0.657827
-0.117211 -0.669176 -0.669176
-0.137512 -0.680997 -0.680997
-0.139629 -0.704115 -0.704115
-0.100309 -0.703425 -0.703425
-0.0987672 -0.680296 -0.680296
-0.138572 -0.692513 -0.692513
-0.119959 -0.703734 -0.703734
-0.0995392 -0.691818 -0.691818
-0.118129 -0.68061 -0.68061
-0.119045 -0.692129 -0.692129
-0.139629 -0.704115 -0.704115
-0.141735 -0.727571 -0.727571
-0.101845 -0.726893 -0.726893
-0.100309 -0.703425 -0.703425
-0.140683 -0.715801 -0.715801
-0.121779 -0.727196 -0.727196
-0.101078 -0.715117 -0.715117
-0.119959 -0.703734 -0.703734
-0.12087 -0.715423 -0.715423
-0.141735 -0.727571 -0.727571
-0.143829 -0.751365 -0.751365
-0.103373 -0.750698 -0.750698
-0.101845 -0.726893 -0.726893
-0.142783 -0.739426 -0.739426
-0.123591 -0.750996 -0.750996
-0.10261 -0.738754 -0.738754
-0.121779 -0.727196 -0.727196
-0.122686 -0.739054 -0.739054
-0.143829 -0.751365 -0.751365
-0.145912 -0.775492 -0.775492
-0.104894 -0.774837 -0.774837
-0.103373 -0.750698 -0.750698
-0.144872 -0.763387 -0.763387
-0.125393 -0.775129 -0.775129
-0.104134 -0.762726 -0.762726
-0.123591 -0.750996 -0.750996
-0.124493 -0.763021 -0.763021
-0.145912 -0.775492 -0.775492
-0.147985 -0.799951 -0.799951
-0.106408 -0.799308 -0.799308
-0.104894 -0.774837 -0.774837
-0.14695 -0.78768 -0.78768
-0.127186 -0.799594 -0.799594
-0.105651 -0.787031 -0.787031
-0.125393 -0.775129 -0.775129
-0.12629 -0.78732 -0.78732
-0.147985 -0.799951 -0.799951
-0.150046 -0.824739 -0.824739
-0.107914 -0.824107 -0.824107
-0.106408 -0.799308 -0.799308
-0.149016 -0.812304 -0.812304
-0.12897 -0.824388 -0.824388
-0.107162 -0.811667 -0.811667
-0.127186 -0.799594 -0.799594
-0.128079 -0.81195 -0.81195
-0.150046 -0.824739 -0.824739
-0.152095 -0.849854 -0.849854
-0.109414 -0.849234 -0.849234
-0.107914 -0.824107 -0.824107
-0.151072 -0.837256 -0.837256
-0.130744 -0.849509 -0.849509
-0.108665 -0.83663 -0.83663
-0.12897 -0.824388 -0.824388
-0.129858 -0.836908 -0.836908
-0.152095 -0.849854 -0.849854
-0.154134 -0.875294 -0.875294
-0.110907 -0.874685 -0.874685
-0.109414 -0.849234 -0.849234
-0.153116 -0.862533 -0.862533
-0.13251 -0.874955 -0.874955
-0.110162 -0.861919 -0.861919
-0.130744 -0.849509 -0.849509
-0.131629 -0.862192 -0.862192
-0.154134 -0.875294 -0.875294
-0.156162 -0.901055 -0.901055
-0.112393 -0.900458 -0.900458
-0.110907 -0.874685 -0.874685
-0.15515 -0.888134 -0.888134
-0.134267 -0.900723 -0.900723
-0.111651 -0.887532 -0.887532
-0.13251 -0.874955 -0.874955
-0.13339 -0.887799 -0.887799
-0.156162 -0.901055 -0.901055
-0.158179 -0.927136 -0.927136
-0.113872 -0.926551 -0.926551
-0.112393 -0.900458 -0.900458
-0.157172 -0.914056 -0.914056
-0.136015 -0.92681 -0.92681
-0.113133 -0.913465 -0.913465
-0.134267 -0.900723 -0.900723
-0.135142 -0.913726 -0.913726
-0.158179 -0.927136 -0.927136
-0.160184 -0.953534 -0.953534
-0.115344 -0.952961 -0.952961
-0.113872 -0.926551 -0.926551
-0.159183 -0.940296 -0.940296
-0.137754 -0.953214 -0.953214
-0.114609 -0.939717 -0.939717
-0.136015 -0.92681 -0.92681
-0.136885 -0.939972 -0.939972
-0.160184 -0.953534 -0.953534
-0.162179 -0.980247 -0.980247
-0.116809 -0.979686 -0.979686
-0.115344 -0.952961 -0.952961
-0.161183 -0.966851 -0.966851
-0.139483 -0.979933 -0.979933
-0.116077 -0.966284 -0.966284
-0.137754 -0.953214 -0.953214
-0.13862 -0.966534 -0.966534
-0.162179 -0.980247 -0.980247
-0.164162 -1.00727 -1.00727
-0.118267 -1.00672 -1.00672
-0.116809 -0.979686 -0.979686
-0.163172 -0.993721 -0.993721
-0.141204 -1.00696 -1.00696
-0.117539 -0.993165 -0.993165
-0.139483 -0.979933 -0.979933
-0.140345 -0.99341 -0.99341
-0.164162 -1.00727 -1.00727
-0.166135 -1.03461 -1.03461
-0.119718 -1.03407 -1.03407
-0.118267 -1.00672 -1.00672
-0.16515 -1.0209 -1.0209
-0.142916 -1.03431 -1.03431
-0.118993 -1.02036 -1.02036
-0.141204 -1.00696 -1.00696
-0.142061 -1.0206 -1.0206
-0.166135 -1.03461 -1.03461
-0.168097 -1.06225 -1.06225
-0.121162 -1.06172 -1.06172
-0.119718 -1.03407 -1.03407
-0.167117 -1.04839 -1.04839
-0.144619 -1.06195 -1.06195
-0.120441 -1.04786 -1.04786
-0.142916 -1.03431 -1.03431
-0.143769 -1.04809 -1.04809
-0.168097 -1.06225 -1.06225
-0.170047 -1.0902 -1.0902
-0.1226 -1.08968 -1.08968