<?xml version="1.0"?>
<VTKFile type="UnstructuredGrid">
  <UnstructuredGrid>
  <Piece NumberOfPoints="12411"  NumberOfCells="1379">
    <Points>
      <DataArray type="Float64" NumberOfComponents="3" format="ascii">
0 0 0
2.52961 -0.00421506 0
2.53302 4.28429 0
0 4.28571 0
1.26443 -0.00262934 0
2.53169 2.14031 0
1.26659 4.28521 0
0 2.14286 0
1.26599 2.14173 0
2.52961 -0.00421506 0
5.06035 -0.00731563 0
5.06563 4.28161 0
2.53302 4.28429 0
3.79497 -0.00570676 0
5.06312 2.13731 0
3.79935 4.28308 0
2.53169 2.14031 0
3.79739 2.13885 0
5.06035 -0.00731563 0
7.59103 -0.0110568 0
7.59818 4.27792 0
5.06563 4.28161 0
6.32571 -0.00907647 0
7.59465 2.13355 0
6.3319 4.27989 0
5.06312 2.13731 0
6.32888 2.13555 0
7.59103 -0.0110568 0
10.1217 -0.0158731 0
10.1308 4.27311 0
7.59818 4.27792 0
8.85635 -0.0133192 0
10.1262 2.12875 0
8.86447 4.27566 0
7.59465 2.13355 0
8.86043 2.13129 0
10.1217 -0.0158731 0
12.6522 -0.0218635 0
12.6634 4.2671 0
10.1308 4.27311 0
11.3869 -0.0187174 0
12.6578 2.12275 0
11.3971 4.27026 0
10.1262 2.12875 0
11.392 2.1259 0
12.6522 -0.0218635 0
15.1828 -0.0290955 0
15.196 4.25985 0
12.6634 4.2671 0
13.9175 -0.0253228 0
15.1894 2.11551 0
13.9297 4.26364 0
12.6578 2.12275 0
13.9236 2.11929 0
15.1828 -0.0290955 0
17.7134 -0.0375781 0
17.7287 4.25135 0
15.196 4.25985 0
16.4481 -0.03318 0
17.7211 2.10702 0
16.4624 4.25576 0
15.1894 2.11551 0
16.4553 2.11142 0
17.7134 -0.0375781 0
20.244 -0.0473192 0
20.2615 4.24158 0
17.7287 4.25135 0
18.9787 -0.0422914 0
20.2527 2.09727 0
18.9951 4.24662 0
17.7211 2.10702 0
18.9869 2.1023 0
20.244 -0.0473192 0
22.7746 -0.0583141 0
22.7942 4.23056 0
20.2615 4.24158 0
21.5093 -0.0526603 0
22.7844 2.08626 0
21.5278 4.23623 0
20.2527 2.09727 0
21.5186 2.09192 0
22.7746 -0.0583141 0
25.3053 -0.0705581 0
25.327 4.21829 0
22.7942 4.23056 0
24.0399 -0.0642803 0
25.3161 2.074 0
24.0606 4.22458 0
22.7844 2.08626 0
24.0503 2.08028 0
25.3053 -0.0705581 0
27.836 -0.0840442 0
27.8597 4.20478 0
25.327 4.21829 0
26.5706 -0.0771463 0
27.8479 2.0605 0
26.5933 4.21169 0
25.3161 2.074 0
26.582 2.0674 0
27.836 -0.0840442 0
30.3667 -0.0987659 0
30.3926 4.19003 0
27.8597 4.20478 0
29.1013 -0.0912511 0
30.3796 2.04576 0
29.1261 4.19756 0
27.8479 2.0605 0
29.1138 2.05328 0
30.3667 -0.0987659 0
32.8974 -0.114716 0
32.9254 4.17405 0
30.3926 4.19003 0
31.632 -0.106588 0
32.9114 2.0298 0
31.659 4.18219 0
30.3796 2.04576 0
31.6455 2.03793 0
32.8974 -0.114716 0
35.4282 -0.131888 0
35.4582 4.15684 0
32.9254 4.17405 0
34.1628 -0.12315 0
35.4432 2.01261 0
34.1918 4.1656 0
32.9114 2.0298 0
34.1773 2.02135 0
35.4282 -0.131888 0
37.959 -0.150275 0
37.9911 4.13842 0
35.4582 4.15684 0
36.6936 -0.14093 0
37.9751 1.9942 0
36.7247 4.14778 0
35.4432 2.01261 0
36.7092 2.00356 0
37.959 -0.150275 0
40.4899 -0.16987 0
40.524 4.1188 0
37.9911 4.13842 0
39.2244 -0.159922 0
40.507 1.97459 0
39.2575 4.12876 0
37.9751 1.9942 0
39.241 1.98455 0
40.4899 -0.16987 0
43.0208 -0.190667 0
43.0569 4.09796 0
40.524 4.1188 0
41.7553 -0.180119 0
43.0388 1.95378 0
41.7904 4.10853 0
40.507 1.97459 0
41.7729 1.96433 0
43.0208 -0.190667 0
45.5517 -0.21266 0
45.5898 4.07594 0
43.0569 4.09796 0
44.2862 -0.201515 0
45.5708 1.93177 0
44.3233 4.0871 0
43.0388 1.95378 0
44.3048 1.94292 0
45.5517 -0.21266 0
48.0826 -0.23584 0
48.1228 4.05272 0
45.5898 4.07594 0
46.8171 -0.224102 0
48.1027 1.90857 0
46.8563 4.06448 0
45.5708 1.93177 0
46.8367 1.92032 0
48.0826 -0.23584 0
50.6136 -0.260202 0
50.6557 4.02832 0
48.1228 4.05272 0
49.3481 -0.247874 0
50.6347 1.88419 0
49.3892 4.04067 0
48.1027 1.90857 0
49.3687 1.89652 0
50.6136 -0.260202 0
53.1445 -0.28574 0
53.1887 4.00275 0
50.6557 4.02832 0
51.879 -0.272824 0
53.1666 1.85863 0
51.9222 4.01568 0
50.6347 1.88419 0
51.9007 1.87156 0
53.1445 -0.28574 0
55.6756 -0.312446 0
55.7217 3.97601 0
53.1887 4.00275 0
54.41 -0.298947 0
55.6987 1.8319 0
54.4552 3.98952 0
53.1666 1.85863 0
54.4326 1.84541 0
55.6756 -0.312446 0
58.2066 -0.340314 0
58.2547 3.9481 0
55.7217 3.97601 0
56.9411 -0.326235 0
58.2307 1.80402 0
56.9882 3.9622 0
55.6987 1.8319 0
56.9647 1.81811 0
58.2066 -0.340314 0
60.7377 -0.369337 0
60.7877 3.91904 0
58.2547 3.9481 0
59.4721 -0.354681 0
60.7627 1.77497 0
59.5212 3.93371 0
58.2307 1.80402 0
59.4967 1.78964 0
60.7377 -0.369337 0
63.2688 -0.399509 0
63.3207 3.88882 0
60.7877 3.91904 0
62.0032 -0.38428 0
63.2948 1.74478 0
62.0542 3.90407 0
60.7627 1.77497 0
62.0288 1.76002 0
63.2688 -0.399509 0
65.7999 -0.430823 0
65.8538 3.85747 0
63.3207 3.88882 0
64.5343 -0.415024 0
65.8269 1.71344 0
64.5873 3.87329 0
63.2948 1.74478 0
64.5608 1.72925 0
65.7999 -0.430823 0
68.331 -0.463273 0
68.3869 3.82498 0
65.8538 3.85747 0
67.0655 -0.446906 0
68.359 1.68097 0
67.1203 3.84136 0
65.8269 1.71344 0
67.0929 1.69735 0
68.331 -0.463273 0
70.8622 -0.496851 0
70.9199 3.79136 0
68.3869 3.82498 0
69.5966 -0.479921 0
70.8911 1.64737 0
69.6534 3.80831 0
68.359 1.68097 0
69.625 1.66431 0
70.8622 -0.496851 0
73.3934 -0.531552 0
73.453 3.75661 0
70.9199 3.79136 0
72.1278 -0.514062 0
73.4233 1.61265 0
72.1865 3.77412 0
70.8911 1.64737 0
72.1572 1.63015 0
73.3934 -0.531552 0
75.9246 -0.567369 0
75.9861 3.72075 0
73.453 3.75661 0
74.659 -0.549322 0
75.9554 1.57681 0
74.7196 3.73882 0
73.4233 1.61265 0
74.6893 1.59487 0
75.9246 -0.567369 0
78.4559 -0.604294 0
78.5193 3.68378 0
75.9861 3.72075 0
77.1903 -0.585693 0
78.4876 1.53986 0
77.2527 3.70241 0
75.9554 1.57681 0
77.2215 1.55847 0
78.4559 -0.604294 0
80.9872 -0.642323 0
81.0524 3.64571 0
78.5193 3.68378 0
79.7215 -0.623171 0
81.0198 1.50181 0
79.7858 3.66488 0
78.4876 1.53986 0
79.7537 1.52097 0
80.9872 -0.642323 0
83.5184 -0.681446 0
83.5855 3.60654 0
81.0524 3.64571 0
82.2528 -0.661748 0
83.552 1.46266 0
82.319 3.62626 0
81.0198 1.50181 0
82.2859 1.48237 0
83.5184 -0.681446 0
86.0498 -0.72166 0
86.1187 3.56628 0
83.5855 3.60654 0
84.7841 -0.701417 0
86.0842 1.42243 0
84.8521 3.58655 0
83.552 1.46266 0
84.8181 1.44268 0
86.0498 -0.72166 0
88.5811 -0.762955 0
88.6518 3.52494 0
86.1187 3.56628 0
87.3154 -0.742172 0
88.6165 1.38111 0
87.3853 3.54574 0
86.0842 1.42243 0
87.3504 1.4019 0
88.5811 -0.762955 0
91.1125 -0.805327 0
91.185 3.48252 0
88.6518 3.52494 0
89.8468 -0.784007 0
91.1488 1.33871 0
89.9184 3.50386 0
88.6165 1.38111 0
89.8826 1.36004 0
91.1125 -0.805327 0
93.6438 -0.848768 0
93.7182 3.43903 0
91.185 3.48252 0
92.3781 -0.826914 0
93.681 1.29525 0
92.4516 3.46091 0
91.1488 1.33871 0
92.4149 1.31711 0
93.6438 -0.848768 0
96.1752 -0.893272 0
96.2514 3.39448 0
93.7182 3.43903 0
94.9095 -0.870887 0
96.2133 1.25072 0
94.9848 3.41689 0
93.681 1.29525 0
94.9472 1.27311 0
96.1752 -0.893272 0
98.7067 -0.938832 0
98.7846 3.34887 0
96.2514 3.39448 0
97.4409 -0.91592 0
98.7457 1.20513 0
97.518 3.37181 0
96.2133 1.25072 0
97.4795 1.22806 0
98.7067 -0.938832 0
101.238 -0.985441 0
101.318 3.30221 0
98.7846 3.34887 0
99.9724 -0.962006 0
101.278 1.1585 0
100.051 3.32567 0
98.7457 1.20513 0
100.012 1.18194 0
101.238 -0.985441 0
103.77 -1.03309 0
103.851 3.25451 0
101.318 3.30221 0
102.504 -1.00914 0
103.81 1.11082 0
102.584 3.27849 0
101.278 1.1585 0
102.544 1.13479 0
103.77 -1.03309 0
106.301 -1.08178 0
106.384 3.20577 0
103.851 3.25451 0
105.035 -1.05731 0
106.343 1.0621 0
105.118 3.23027 0
103.81 1.11082 0
105.076 1.08659 0
106.301 -1.08178 0
108.833 -1.1315 0
108.917 3.156 0
106.384 3.20577 0
107.567 -1.10651 0
108.875 1.01236 0
107.651 3.18101 0
106.343 1.0621 0
107.609 1.03736 0
108.833 -1.1315 0
111.364 -1.18224 0
111.451 3.10521 0
108.917 3.156 0
110.098 -1.15674 0
111.407 0.961591 0
110.184 3.13073 0
108.875 1.01236 0
110.141 0.987103 0
111.364 -1.18224 0
113.896 -1.234 0
113.984 3.0534 0
111.451 3.10521 0
112.63 -1.20799 0
113.94 0.909807 0
112.717 3.07943 0
111.407 0.961591 0
112.674 0.935826 0
113.896 -1.234 0
116.427 -1.28677 0
116.517 3.00058 0
113.984 3.0534 0
115.161 -1.26026 0
116.472 0.857012 0
115.251 3.02711 0
113.94 0.909807 0
115.206 0.883535 0
116.427 -1.28677 0
118.959 -1.34054 0
119.051 2.94675 0
116.517 3.00058 0
117.693 -1.31353 0
119.005 0.803214 0
117.784 2.97379 0
116.472 0.857012 0
117.738 0.830238 0
118.959 -1.34054 0
121.49 -1.3953 0
121.584 2.89193 0
119.051 2.94675 0
120.225 -1.3678 0
121.537 0.74842 0
120.317 2.91947 0
119.005 0.803214 0
120.271 0.775941 0
121.49 -1.3953 0
124.022 -1.45106 0
124.117 2.83612 0
121.584 2.89193 0
122.756 -1.42306 0
124.07 0.692635 0
122.85 2.86415 0
121.537 0.74842 0
122.803 0.720651 0
124.022 -1.45106 0
126.554 -1.5078 0
126.65 2.77933 0
124.117 2.83612 0
125.288 -1.47931 0
126.602 0.635867 0
125.384 2.80785 0
124.07 0.692635 0
125.336 0.664373 0
126.554 -1.5078 0
129.085 -1.56552 0
129.184 2.72155 0
126.65 2.77933 0
127.819 -1.53654 0
129.134 0.578121 0
127.917 2.75056 0
126.602 0.635867 0
127.868 0.607116 0
129.085 -1.56552 0
131.617 -1.62421 0
131.717 2.66281 0
129.184 2.72155 0
130.351 -1.59474 0
131.667 0.519406 0
130.45 2.6923 0
129.134 0.578121 0
130.401 0.548885 0
131.617 -1.62421 0
134.149 -1.68386 0
134.25 2.60311 0
131.717 2.66281 0
132.883 -1.65391 0
134.199 0.459727 0
132.984 2.63308 0
131.667 0.519406 0
132.933 0.489687 0
134.149 -1.68386 0
136.68 -1.74446 0
136.784 2.54244 0
134.25 2.60311 0
135.414 -1.71404 0
136.732 0.399091 0
135.517 2.57289 0
134.199 0.459727 0
135.466 0.429528 0
136.68 -1.74446 0
139.212 -1.80602 0
139.317 2.48083 0
136.784 2.54244 0
137.946 -1.77513 0
139.264 0.337504 0
138.05 2.51176 0
136.732 0.399091 0
137.998 0.368416 0
139.212 -1.80602 0
141.744 -1.86852 0
141.85 2.41827 0
139.317 2.48083 0
140.478 -1.83716 0
141.797 0.274974 0
140.584 2.44967 0
139.264 0.337504 0
140.531 0.306357 0
141.744 -1.86852 0
144.275 -1.93196 0
144.384 2.35478 0
141.85 2.41827 0
143.01 -1.90013 0
144.33 0.211507 0
143.117 2.38664 0
141.797 0.274974 0
143.063 0.243357 0
144.275 -1.93196 0
146.807 -1.99633 0
146.917 2.29035 0
144.384 2.35478 0
145.541 -1.96403 0
146.862 0.147109 0
145.65 2.32268 0
144.33 0.211507 0
145.596 0.179424 0
146.807 -1.99633 0
149.339 -2.06162 0
149.45 2.225 0
146.917 2.29035 0
148.073 -2.02886 0
149.395 0.0817875 0
148.184 2.25779 0
146.862 0.147109 0
[...]
    <PointData>
      <DataArray type="Float64" NumberOfComponents="3" Name="Displacement" format="ascii">
0 0 0
-0.00846507 -0.00421506 -0.00421506
-0.00504826 -0.00142164 -0.00142164
0 0 0
-0.00460706 -0.00262934 -0.00262934
-0.00637632 -0.00254659 -0.00254659
-0.00244945 -0.000508918 -0.000508918
0 0 0
-0.00304074 -0.00112289 -0.00112289
-0.00846507 -0.00421506 -0.00421506
-0.0157892 -0.00731563 -0.00731563
-0.0105152 -0.00410701 -0.00410701
-0.00504826 -0.00142164 -0.00142164
-0.0121375 -0.00570676 -0.00570676
-0.0130199 -0.00554868 -0.00554868
-0.00775569 -0.00263461 -0.00263461
-0.00637632 -0.00254659 -0.00254659
-0.00971688 -0.00400258 -0.00400258
-0.0157892 -0.00731563 -0.00731563
-0.0231801 -0.0110568 -0.0110568
-0.0160317 -0.00779743 -0.00779743
-0.0105152 -0.00410701 -0.00410701
-0.0194714 -0.00907647 -0.00907647
-0.0195669 -0.00930372 -0.00930372
-0.0132766 -0.00582221 -0.00582221
-0.0130199 -0.00554868 -0.00554868
-0.0163018 -0.00730365 -0.00730365
-0.0231801 -0.0110568 -0.0110568
-0.0306332 -0.0158731 -0.0158731
-0.0215216 -0.0126055 -0.0126055
-0.0160317 -0.00779743 -0.00779743
-0.0269011 -0.0133192 -0.0133192
-0.0260592 -0.0141102 -0.0141102
-0.0187812 -0.0100552 -0.0100552
-0.0195669 -0.00930372 -0.00930372
-0.0228175 -0.0115656 -0.0115656
-0.0306332 -0.0158731 -0.0158731
-0.0381277 -0.0218635 -0.0218635
-0.0269667 -0.0186112 -0.0186112
-0.0215216 -0.0126055 -0.0126055
-0.0343774 -0.0187174 -0.0187174
-0.0325311 -0.0201093 -0.0201093
-0.0242494 -0.0154553 -0.0154553
-0.0260592 -0.0141102 -0.0141102
-0.0292971 -0.0169562 -0.0169562
-0.0381277 -0.0218635 -0.0218635
-0.0456269 -0.0290955 -0.0290955
-0.0323783 -0.0258603 -0.0258603
-0.0269667 -0.0186112 -0.0186112
-0.0418779 -0.0253228 -0.0253228
-0.0389836 -0.0273459 -0.0273459
-0.0296763 -0.022079 -0.022079
-0.0325311 -0.0201093 -0.0201093
-0.0357598 -0.0235715 -0.0235715
-0.0456269 -0.0290955 -0.0290955
-0.0531181 -0.0375781 -0.0375781
-0.0377593 -0.0343658 -0.0343658
-0.0323783 -0.0258603 -0.0258603
-0.0493743 -0.03318 -0.03318
-0.0454166 -0.0358393 -0.0358393
-0.0350724 -0.0299557 -0.0299557
-0.0389836 -0.0273459 -0.0273459
-0.0422027 -0.0314351 -0.0314351
-0.0531181 -0.0375781 -0.0375781
-0.0605881 -0.0473192 -0.0473192
-0.0431142 -0.044131 -0.044131
-0.0377593 -0.0343658 -0.0343658
-0.0568562 -0.0422914 -0.0422914
-0.0518265 -0.0455915 -0.0455915
-0.0404399 -0.0390911 -0.0390911
-0.0454166 -0.0358393 -0.0358393
-0.0486245 -0.0405582 -0.0405582
-0.0605881 -0.0473192 -0.0473192
-0.0680315 -0.0583141 -0.0583141
-0.0484446 -0.055152 -0.055152
-0.0431142 -0.044131 -0.044131
-0.0643134 -0.0526603 -0.0526603
-0.0582118 -0.0565995 -0.0565995
-0.0457824 -0.0494849 -0.0494849
-0.0518265 -0.0455915 -0.0455915
-0.0550223 -0.0509389 -0.0509389
-0.0680315 -0.0583141 -0.0583141
-0.0754448 -0.0705581 -0.0705581
-0.0537521 -0.0674231 -0.0674231
-0.0484446 -0.055152 -0.055152
-0.0717421 -0.0642803 -0.0642803
-0.0645711 -0.0688573 -0.0688573
-0.0511012 -0.0611317 -0.0611317
-0.0582118 -0.0565995 -0.0565995
-0.0613947 -0.0625726 -0.0625726
-0.0754448 -0.0705581 -0.0705581
-0.0828267 -0.0840442 -0.0840442
-0.0590373 -0.0809375 -0.0809375
-0.0537521 -0.0674231 -0.0674231
-0.0791397 -0.0771463 -0.0771463
-0.0709041 -0.0823582 -0.0823582
-0.0563974 -0.0740253 -0.0740253
-0.0645711 -0.0688573 -0.0688573
-0.0677409 -0.0754528 -0.0754528
-0.0828267 -0.0840442 -0.0840442
-0.0901766 -0.0987659 -0.0987659
-0.0643011 -0.0956884 -0.0956884
-0.0590373 -0.0809375 -0.0809375
-0.0865056 -0.0912511 -0.0912511
-0.0772106 -0.0970951 -0.0970951
-0.0616718 -0.0881588 -0.0881588
-0.0709041 -0.0823582 -0.0823582
-0.0740606 -0.0895725 -0.0895725
-0.0901766 -0.0987659 -0.0987659
-0.0974946 -0.114716 -0.114716
-0.0695441 -0.111669 -0.111669
-0.0643011 -0.0956884 -0.0956884
-0.0938396 -0.106588 -0.106588
-0.0834909 -0.113061 -0.113061
-0.0669252 -0.103525 -0.103525
-0.0772106 -0.0970951 -0.0970951
-0.080354 -0.104925 -0.104925
-0.0974946 -0.114716 -0.114716
-0.104781 -0.131888 -0.131888
-0.0747668 -0.128872 -0.128872
-0.0695441 -0.111669 -0.111669
-0.101142 -0.12315 -0.12315
-0.0897454 -0.130249 -0.130249
-0.0721579 -0.120118 -0.120118
-0.0834909 -0.113061 -0.113061
-0.0866213 -0.121503 -0.121503
-0.104781 -0.131888 -0.131888
-0.112037 -0.150275 -0.150275
-0.0799698 -0.147291 -0.147291
-0.0747668 -0.128872 -0.128872
-0.108413 -0.14093 -0.14093
-0.0959746 -0.148653 -0.148653
-0.0773707 -0.13793 -0.13793
-0.0897454 -0.130249 -0.130249
-0.0928632 -0.1393 -0.1393
-0.112037 -0.150275 -0.150275
-0.119262 -0.16987 -0.16987
-0.0851536 -0.166919 -0.166919
-0.0799698 -0.147291 -0.147291
-0.115653 -0.159922 -0.159922
-0.102179 -0.168265 -0.168265
-0.0825641 -0.156954 -0.156954
-0.0959746 -0.148653 -0.148653
-0.0990799 -0.158309 -0.158309
-0.119262 -0.16987 -0.16987
-0.126457 -0.190667 -0.190667
-0.0903188 -0.18775 -0.18775
-0.0851536 -0.166919 -0.166919
-0.122863 -0.180119 -0.180119
-0.108359 -0.18908 -0.18908
-0.0877385 -0.177184 -0.177184
-0.102179 -0.168265 -0.168265
-0.105272 -0.178523 -0.178523
-0.126457 -0.190667 -0.190667
-0.133623 -0.21266 -0.21266
-0.0954658 -0.209776 -0.209776
-0.0903188 -0.18775 -0.18775
-0.130044 -0.201515 -0.201515
-0.114515 -0.21109 -0.21109
-0.0928945 -0.198614 -0.198614
-0.108359 -0.18908 -0.18908
-0.11144 -0.199936 -0.199936
-0.133623 -0.21266 -0.21266
-0.14076 -0.23584 -0.23584
-0.100595 -0.232992 -0.232992
-0.0954658 -0.209776 -0.209776
-0.137195 -0.224102 -0.224102
-0.120648 -0.234289 -0.234289
-0.0980327 -0.221236 -0.221236
-0.114515 -0.21109 -0.21109
-0.117585 -0.222541 -0.222541
-0.14076 -0.23584 -0.23584
-0.147868 -0.260202 -0.260202
-0.105708 -0.257391 -0.257391
-0.100595 -0.232992 -0.232992
-0.144317 -0.247874 -0.247874
-0.126759 -0.25867 -0.25867
-0.103153 -0.245044 -0.245044
-0.120648 -0.234289 -0.234289
-0.123706 -0.246332 -0.246332
-0.147868 -0.260202 -0.260202
-0.154948 -0.28574 -0.28574
-0.110803 -0.282965 -0.282965
-0.105708 -0.257391 -0.257391
-0.151412 -0.272824 -0.272824
-0.132847 -0.284227 -0.284227
-0.108257 -0.270031 -0.270031
-0.126759 -0.25867 -0.25867
-0.129805 -0.271302 -0.271302
-0.154948 -0.28574 -0.28574
-0.162001 -0.312446 -0.312446
-0.115883 -0.309709 -0.309709
-0.110803 -0.282965 -0.282965
-0.158478 -0.298947 -0.298947
-0.138913 -0.310952 -0.310952
-0.113345 -0.296191 -0.296191
-0.132847 -0.284227 -0.284227
-0.135883 -0.297444 -0.297444
-0.162001 -0.312446 -0.312446
-0.169027 -0.340314 -0.340314
-0.120946 -0.337615 -0.337615
-0.115883 -0.309709 -0.309709
-0.165518 -0.326235 -0.326235
-0.144958 -0.33884 -0.33884
-0.118416 -0.323517 -0.323517
-0.138913 -0.310952 -0.310952
-0.141938 -0.324752 -0.324752
-0.169027 -0.340314 -0.340314
-0.176027 -0.369337 -0.369337
-0.125995 -0.366678 -0.366678
-0.120946 -0.337615 -0.337615
-0.17253 -0.354681 -0.354681
-0.150982 -0.367884 -0.367884
-0.123472 -0.352003 -0.352003
-0.144958 -0.33884 -0.33884
-0.147972 -0.353218 -0.353218
-0.176027 -0.369337 -0.369337
-0.183 -0.399509 -0.399509
-0.131029 -0.39689 -0.39689
-0.125995 -0.366678 -0.366678
-0.179517 -0.38428 -0.38428
-0.156985 -0.398077 -0.398077
-0.128514 -0.381641 -0.381641
-0.150982 -0.367884 -0.367884
-0.153986 -0.382837 -0.382837
-0.183 -0.399509 -0.399509
-0.189948 -0.430823 -0.430823
-0.136048 -0.428245 -0.428245
-0.131029 -0.39689 -0.39689
-0.186477 -0.415024 -0.415024
-0.162969 -0.429412 -0.429412
-0.13354 -0.412425 -0.412425
-0.156985 -0.398077 -0.398077
-0.159979 -0.413602 -0.413602
-0.189948 -0.430823 -0.430823
-0.19687 -0.463273 -0.463273
-0.141053 -0.460737 -0.460737
-0.136048 -0.428245 -0.428245
-0.193412 -0.446906 -0.446906
-0.168933 -0.461884 -0.461884
-0.138552 -0.444349 -0.444349
-0.162969 -0.429412 -0.429412
-0.165953 -0.445506 -0.445506
-0.19687 -0.463273 -0.463273
-0.203768 -0.496851 -0.496851
-0.146045 -0.494358 -0.494358
-0.141053 -0.460737 -0.460737
-0.200322 -0.479921 -0.479921
-0.174877 -0.495484 -0.495484
-0.143551 -0.477406 -0.477406
-0.168933 -0.461884 -0.461884
-0.171907 -0.478543 -0.478543
-0.203768 -0.496851 -0.496851
-0.210642 -0.531552 -0.531552
-0.151024 -0.529101 -0.529101
-0.146045 -0.494358 -0.494358
-0.207208 -0.514062 -0.514062
-0.180803 -0.530207 -0.530207
-0.148536 -0.51159 -0.51159
-0.174877 -0.495484 -0.495484
-0.177843 -0.512706 -0.512706
-0.210642 -0.531552 -0.531552
-0.217491 -0.567369 -0.567369
-0.15599 -0.564962 -0.564962
-0.151024 -0.529101 -0.529101
-0.214069 -0.549322 -0.549322
-0.186711 -0.566046 -0.566046
-0.153509 -0.546892 -0.546892
-0.180803 -0.530207 -0.530207
-0.18376 -0.547988 -0.547988
-0.217491 -0.567369 -0.567369
-0.224317 -0.604294 -0.604294
-0.160944 -0.601932 -0.601932
-0.15599 -0.564962 -0.564962
-0.220907 -0.585693 -0.585693
-0.192601 -0.602995 -0.602995
-0.158469 -0.583308 -0.583308
-0.186711 -0.566046 -0.566046
-0.189658 -0.584382 -0.584382
-0.224317 -0.604294 -0.604294
-0.23112 -0.642323 -0.642323
-0.165886 -0.640005 -0.640005
-0.160944 -0.601932 -0.601932
-0.227721 -0.623171 -0.623171
-0.198473 -0.641046 -0.641046
-0.163417 -0.620831 -0.620831
-0.192601 -0.602995 -0.602995
-0.195539 -0.621883 -0.621883
-0.23112 -0.642323 -0.642323
-0.237899 -0.681446 -0.681446
-0.170817 -0.679174 -0.679174
-0.165886 -0.640005 -0.640005
-0.234512 -0.661748 -0.661748
-0.204328 -0.680193 -0.680193
-0.168353 -0.659453 -0.659453
-0.198473 -0.641046 -0.641046
-0.201403 -0.660483 -0.660483
-0.237899 -0.681446 -0.681446
-0.244657 -0.72166 -0.72166
-0.175736 -0.719433 -0.719433
-0.170817 -0.679174 -0.679174
-0.241281 -0.701417 -0.701417
-0.210167 -0.72043 -0.72043
-0.173278 -0.699168 -0.699168
-0.204328 -0.680193 -0.680193
-0.20725 -0.700176 -0.700176
-0.244657 -0.72166 -0.72166
-0.251392 -0.762955 -0.762955
-0.180644 -0.760776 -0.760776
-0.175736 -0.719433 -0.719433
-0.248027 -0.742172 -0.742172
-0.215989 -0.76175 -0.76175
-0.178192 -0.73997 -0.73997
-0.210167 -0.72043 -0.72043
-0.21308 -0.740955 -0.740955
-0.251392 -0.762955 -0.762955
-0.258106 -0.805327 -0.805327
-0.185542 -0.803195 -0.803195
-0.180644 -0.760776 -0.760776
-0.254752 -0.784007 -0.784007
-0.221795 -0.804146 -0.804146
-0.183095 -0.781851 -0.781851
-0.215989 -0.76175 -0.76175
-0.218894 -0.782814 -0.782814
-0.258106 -0.805327 -0.805327
-0.264798 -0.848768 -0.848768
-0.19043 -0.846684 -0.846684
-0.185542 -0.803195 -0.803195
-0.261455 -0.826914 -0.826914
-0.227585 -0.847612 -0.847612
-0.187988 -0.824806 -0.824806
-0.221795 -0.804146 -0.804146
-0.224692 -0.825746 -0.825746
-0.264798 -0.848768 -0.848768
-0.271469 -0.893272 -0.893272
-0.195309 -0.891236 -0.891236
-0.19043 -0.846684 -0.846684
-0.268136 -0.870887 -0.870887
-0.233359 -0.892141 -0.892141
-0.192871 -0.868828 -0.868828
-0.227585 -0.847612 -0.847612
-0.230474 -0.869744 -0.869744
-0.271469 -0.893272 -0.893272
-0.27812 -0.938832 -0.938832
-0.200177 -0.936845 -0.936845
-0.195309 -0.891236 -0.891236
-0.274797 -0.91592 -0.91592
-0.239119 -0.937726 -0.937726
-0.197744 -0.913909 -0.913909
-0.233359 -0.892141 -0.892141
-0.236241 -0.914802 -0.914802
-0.27812 -0.938832 -0.938832
-0.28475 -0.985441 -0.985441
-0.205037 -0.983504 -0.983504
-0.200177 -0.936845 -0.936845
-0.281438 -0.962006 -0.962006
-0.244864 -0.984361 -0.984361
-0.202608 -0.960044 -0.960044
-0.239119 -0.937726 -0.937726
-0.241993 -0.960913 -0.960913
-0.28475 -0.985441 -0.985441
-0.29136 -1.03309 -1.03309
-0.209888 -1.03121 -1.03121
-0.205037 -0.983504 -0.983504
-0.288058 -1.00914 -1.00914
-0.250594 -1.03204 -1.03204
-0.207464 -1.00723 -1.00723
-0.244864 -0.984361 -0.984361
-0.247731 -1.00807 -1.00807
-0.29136 -1.03309 -1.03309
-0.297951 -1.08178 -1.08178
-0.21473 -1.07995 -1.07995
-0.209888 -1.03121 -1.03121
-0.294658 -1.05731 -1.05731
-0.256311 -1.08075 -1.08075
-0.21231 -1.05545 -1.05545
-0.250594 -1.03204 -1.03204
-0.253454 -1.05627 -1.05627
-0.297951 -1.08178 -1.08178
-0.304521 -1.1315 -1.1315
-0.219565 -1.12972 -1.12972
-0.21473 -1.07995 -1.07995
-0.301238 -1.10651 -1.10651
-0.262013 -1.1305 -1.1305
-0.217148 -1.1047 -1.1047
-0.256311 -1.08075 -1.08075
-0.259164 -1.1055 -1.1055
-0.304521 -1.1315 -1.1315
-0.311073 -1.18224 -1.18224
-0.224391 -1.18051 -1.18051
-0.219565 -1.12972 -1.12972
-0.3078 -1.15674 -1.15674
-0.267702 -1.18127 -1.18127
-0.221979 -1.15498 -1.15498
-0.262013 -1.1305 -1.1305
-0.264859 -1.15575 -1.15575
-0.311073 -1.18224 -1.18224
-0.317606 -1.234 -1.234
-0.229209 -1.23232 -1.23232
-0.224391 -1.18051 -1.18051
-0.314342 -1.20799 -1.20799
-0.273378 -1.23305 -1.23305
-0.226801 -1.20629 -1.20629
-0.267702 -1.18127 -1.18127
-0.270541 -1.20703 -1.20703
-0.317606 -1.234 -1.234
-0.32412 -1.28677 -1.28677
-0.234021 -1.28514 -1.28514
-0.229209 -1.23232 -1.23232
-0.320865 -1.26026 -1.26026
-0.27904 -1.28584 -1.28584
-0.231616 -1.2586 -1.2586
-0.273378 -1.23305 -1.23305
-0.276211 -1.25932 -1.25932
-0.32412 -1.28677 -1.28677
-0.330615 -1.34054 -1.34054
-0.238825 -1.33896 -1.33896
-0.234021 -1.28514 -1.28514
-0.32737 -1.31353 -1.31353
-0.28469 -1.33964 -1.33964
-0.236424 -1.31192 -1.31192
-0.27904 -1.28584 -1.28584
-0.281867 -1.31262 -1.31262
-0.330615 -1.34054 -1.34054
-0.337093 -1.3953 -1.3953
-0.243622 -1.39378 -1.39378
-0.238825 -1.33896 -1.33896
-0.333856 -1.3678 -1.3678
-0.290328 -1.39444 -1.39444
-0.241224 -1.36625 -1.36625
-0.28469 -1.33964 -1.33964
-0.28751 -1.36692 -1.36692
-0.337093 -1.3953 -1.3953
-0.343553 -1.45106 -1.45106
-0.248413 -1.44959 -1.44959
-0.243622 -1.39378 -1.39378
-0.340325 -1.42306 -1.42306
-0.295953 -1.45022 -1.45022
-0.246018 -1.42156 -1.42156
-0.290328 -1.39444 -1.39444
-0.293142 -1.42221 -1.42221
-0.343553 -1.45106 -1.45106
-0.349995 -1.5078 -1.5078
-0.253197 -1.50639 -1.50639
-0.248413 -1.44959 -1.44959
-0.346776 -1.47931 -1.47931
-0.301566 -1.50699 -1.50699
-0.250806 -1.47787 -1.47787
-0.295953 -1.45022 -1.45022
-0.298761 -1.47848 -1.47848
-0.349995 -1.5078 -1.5078
-0.356419 -1.56552 -1.56552
-0.257975 -1.56416 -1.56416
-0.253197 -1.50639 -1.50639
-0.353209 -1.53654 -1.53654
-0.307167 -1.56474 -1.56474
-0.255587 -1.53515 -1.53515
-0.301566 -1.50699 -1.50699
-0.304368 -1.53574 -1.53574
-0.356419 -1.56552 -1.56552
-0.362827 -1.62421 -1.62421
-0.262748 -1.6229 -1.6229
-0.257975 -1.56416 -1.56416
-0.359625 -1.59474 -1.59474
-0.312757 -1.62345 -1.62345
-0.260362 -1.59341 -1.59341
-0.307167 -1.56474 -1.56474
-0.309964 -1.59397 -1.59397
-0.362827 -1.62421 -1.62421
-0.369217 -1.68386 -1.68386
-0.267514 -1.68261 -1.68261
-0.262748 -1.6229 -1.6229
-0.366024 -1.65391 -1.65391
-0.318336 -1.68313 -1.68313
-0.265132 -1.65263 -1.65263
-0.312757 -1.62345 -1.62345
-0.315548 -1.65317 -1.65317
-0.369217 -1.68386 -1.68386
-0.375591 -1.74446 -1.74446
-0.272275 -1.74327 -1.74327
-0.267514 -1.68261 -1.68261
-0.372406 -1.71404 -1.71404
-0.323903 -1.74377 -1.74377
-0.269896 -1.71282 -1.71282
-0.318336 -1.68313 -1.68313
-0.321121 -1.71333 -1.71333
-0.375591 -1.74446 -1.74446
-0.381948 -1.80602 -1.80602
-0.277031 -1.80488 -1.80488
-0.272275 -1.74327 -1.74327
-0.378772 -1.77513 -1.77513
-0.329459 -1.80535 -1.80535
-0.274654 -1.77396 -1.77396
-0.323903 -1.74377 -1.74377
-0.326683 -1.77444 -1.77444
-0.381948 -1.80602 -1.80602
-0.388289 -1.86852 -1.86852
-0.281782 -1.86744 -1.86744
-0.277031 -1.80488 -1.80488
-0.38512 -1.83716 -1.83716
-0.335005 -1.86788 -1.86788
-0.279407 -1.83605 -1.83605
-0.329459 -1.80535 -1.80535
-0.332234 -1.8365 -1.8365
-0.388289 -1.86852 -1.86852
-0.394613 -1.93196 -1.93196
-0.286528 -1.93094 -1.93094
-0.281782 -1.86744 -1.86744
-0.391453 -1.90013 -1.90013
-0.34054 -1.93135 -1.93135
-0.284155 -1.89907 -1.89907
-0.335005 -1.86788 -1.86788
-0.337774 -1.8995 -1.8995
-0.394613 -1.93196 -1.93196
-0.400922 -1.99633 -1.99633
-0.291269 -1.99536 -1.99536
-0.286528 -1.93094 -1.93094
-0.39777 -1.96403 -1.96403
-0.346065 -1.99575 -1.99575
-0.288899 -1.96303 -1.96303
-0.34054 -1.93135 -1.93135
-0.343304 -1.96343 -1.96343
-0.400922 -1.99633 -1.99633
-0.407215 -2.06162 -2.06162
-0.296005 -2.06071 -2.06071
-0.291269 -1.99536 -1.99536
-0.40407 -2.02886 -2.02886
-0.35158 -2.06107 -2.06107
-0.293638 -2.02792 -2.02792
-0.346065 -1.99575 -1.99575
-0.348824 -2.02829 -2.02829
-0.407215 -2.06162 -2.06162
-0.413492 -2.12783 -2.12783
-0.300738 -2.12698 -2.12698
-0.296005 -2.06071 -2.06071
-0.410355 -2.09461 -2.09461
-0.357085 -2.12731 -2.12731
-0.298372 -2.09373 -2.09373
-0.35158 -2.06107 -2.06107
-0.354334 -2.09407 -2.09407
-0.413492 -2.12783 -2.12783
-0.419754 -2.19495 -2.19495
-0.305466 -2.19416 -2.19416
-0.300738 -2.12698 -2.12698
-0.416625 -2.16128 -2.16128
-0.362579 -2.19446 -2.19446
-0.303102 -2.16045 -2.16045
-0.357085 -2.12731 -2.12731
-0.359833 -2.16077 -2.16077
-0.419754 -2.19495 -2.19495
-0.426 -2.26298 -2.26298
-0.310189 -2.26224 -2.26224
-0.305466 -2.19416 -2.19416
-0.422879 -2.22885 -2.22885
-0.368064 -2.26251 -2.26251
-0.307828 -2.22808 -2.22808
-0.362579 -2.19446 -2.19446
-0.365323 -2.22837 -2.22837
-0.426 -2.26298 -2.26298
-0.432231 -2.3319 -2.3319
-0.314909 -2.33122 -2.33122
-0.310189 -2.26224 -2.26224
-0.429117 -2.29732 -2.29732
-0.37354 -2.33146 -2.33146
-0.31255 -2.29662 -2.29662
-0.368064 -2.26251 -2.26251
-0.370803 -2.29688 -2.29688
-0.432231 -2.3319 -2.3319
-0.438447 -2.40171 -2.40171
-0.319625 -2.40109 -2.40109
-0.314909 -2.33122 -2.33122
-0.435341 -2.36669 -2.36669
-0.379006 -2.4013 -2.4013
-0.317268 -2.36604 -2.36604
-0.37354 -2.33146 -2.33146
-0.376274 -2.36627 -2.36627
-0.438447 -2.40171 -2.40171
-0.444648 -2.4724 -2.4724
-0.324338 -2.47184 -2.47184
-0.319625 -2.40109 -2.40109
-0.441549 -2.43695 -2.43695
-0.384463 -2.47203 -2.47203
-0.321982 -2.43635 -2.43635
-0.379006 -2.4013 -2.4013
-0.381735 -2.43656 -2.43656
-0.444648 -2.4724 -2.4724
-0.450834 -2.54398 -2.54398
-0.329047 -2.54347 -2.54347
-0.324338 -2.47184 -2.47184
-0.447743 -2.50808 -2.50808
-0.38991 -2.54363 -2.54363
-0.326693 -2.50755 -2.50755
-0.384463 -2.47203 -2.47203
-0.387188 -2.50772 -2.50772
-0.450834 -2.54398 -2.54398
-0.457006 -2.61642 -2.61642
-0.333752 -2.61598 -2.61598
-0.329047 -2.54347 -2.54347
-0.453922 -2.58009 -2.58009
-0.395349 -2.61611 -2.61611
-0.3314 -2.57962 -2.57962
-0.38991 -2.54363 -2.54363
-0.392631 -2.57976 -2.57976
-0.457006 -2.61642 -2.61642
-0.463163 -2.68973 -2.68973
-0.338454 -2.68934 -2.68934
-0.333752 -2.61598 -2.61598
-0.460086 -2.65297 -2.65297
-0.400778 -2.68944 -2.68944
-0.336104 -2.65255 -2.65255
-0.395349 -2.61611 -2.61611
-0.398064 -2.65267 -2.65267
-0.463163 -2.68973 -2.68973
-0.469305 -2.76389 -2.76389
-0.343153 -2.76357 -2.76357
-0.338454 -2.68934 -2.68934
-0.466236 -2.7267 -2.7267
-0.406199 -2.76364 -2.76364
-0.340804 -2.72635 -2.72635
-0.400778 -2.68944 -2.68944
-0.40349 -2.72644 -2.72644
-0.469305 -2.76389 -2.76389
-0.475433 -2.83891 -2.83891
-0.347849 -2.83864 -2.83864
-0.343153 -2.76357 -2.76357
-0.472371 -2.8013 -2.8013
-0.411611 -2.83869 -2.83869
-0.345502 -2.801 -2.801
-0.406199 -2.76364 -2.76364
-0.408906 -2.80106 -2.80106
-0.475433 -2.83891 -2.83891
-0.481547 -2.91477 -2.91477
-0.352542 -2.91456 -2.91456
-0.347849 -2.83864 -2.83864
-0.478492 -2.87674 -2.87674
-0.417014 -2.91458 -2.91458
-0.350196 -2.8765 -2.8765
-0.411611 -2.83869 -2.83869
-0.414313 -2.87653 -2.87653
-0.481547 -2.91477 -2.91477
-0.487646 -2.99147 -2.99147
-0.357231 -2.99132 -2.99132
-0.352542 -2.91456 -2.91456
-0.484598 -2.95302 -2.95302
-0.422408 -2.99131 -2.99131
-0.354887 -2.95284 -2.95284
-0.417014 -2.91458 -2.91458
-0.419712 -2.95284 -2.95284
-0.487646 -2.99147 -2.99147
-0.493731 -3.069 -3.069
-0.361918 -3.06891 -3.06891
-0.357231 -2.99132 -2.99132
-0.49069 -3.03013 -3.03013
-0.427794 -3.06887 -3.06887
-0.359575 -3.03001 -3.03001
-0.422408 -2.99131 -2.99131
-0.425102 -3.02998 -3.02998
-0.493731 -3.069 -3.069
-0.499803 -3.14735 -3.14735
-0.366602 -3.14732 -3.14732
-0.361918 -3.06891 -3.06891
-0.496769 -3.10807 -3.10807
-0.433172 -3.14725 -3.14725
-0.364261 -3.10801 -3.10801
-0.427794 -3.06887 -3.06887
-0.430484 -3.10796 -3.10796
-0.499803 -3.14735 -3.14735
-0.50586 -3.22652 -3.22652
-0.371284 -3.22656 -3.22656
-0.366602 -3.14732 -3.14732
-0.502833 -3.18684 -3.18684
-0.438541 -3.22645 -3.22645
-0.368943 -3.18684 -3.18684
-0.433172 -3.14725 -3.14725
-0.435858 -3.18675 -3.18675
-0.50586 -3.22652 -3.22652
-0.511903 -3.30651 -3.30651
-0.375962 -3.3066 -3.3066
-0.371284 -3.22656 -3.22656
-0.508883 -3.26641 -3.26641