<?xml version="1.0"?>
<VTKFile type="UnstructuredGrid">
  <UnstructuredGrid>
  <Piece NumberOfPoints="12411"  NumberOfCells="1379">
    <Points>
      <DataArray type="Float64" NumberOfComponents="3" format="ascii">
0 0 0
2.53192 -0.00306806 0
2.5344 4.28468 0
0 4.28571 0
1.26569 -0.00191327 0
2.53343 2.141 0
1.26725 4.28534 0
0 2.14286 0
1.26682 2.14204 0
2.53192 -0.00306806 0
5.06466 -0.00532657 0
5.0685 4.28272 0
2.5344 4.28468 0
3.79828 -0.00415464 0
5.06667 2.13882 0
3.80147 4.2838 0
2.53343 2.141 0
3.80004 2.13994 0
5.06466 -0.00532657 0
7.59736 -0.00805157 0
7.60256 4.28004 0
5.0685 4.28272 0
6.33102 -0.00660917 0
7.59999 2.13608 0
6.33552 4.28147 0
5.06667 2.13882 0
6.33332 2.13754 0
7.59736 -0.00805157 0
10.13 -0.0115589 0
10.1366 4.27654 0
7.60256 4.28004 0
8.86369 -0.00969921 0
10.1333 2.13258 0
8.86959 4.27839 0
7.59999 2.13608 0
8.86666 2.13443 0
10.13 -0.0115589 0
12.6626 -0.015921 0
12.6708 4.27216 0
10.1366 4.27654 0
11.3963 -0.0136302 0
12.6667 2.12821 0
11.4037 4.27446 0
10.1333 2.13258 0
11.4 2.13051 0
12.6626 -0.015921 0
15.1953 -0.0211868 0
15.2049 4.26689 0
12.6708 4.27216 0
13.9289 -0.0184398 0
15.2001 2.12295 0
13.9378 4.26964 0
12.6667 2.12821 0
13.9334 2.12569 0
15.1953 -0.0211868 0
17.7279 -0.027363 0
17.739 4.26069 0
15.2049 4.26689 0
16.4616 -0.0241608 0
17.7335 2.11676 0
16.472 4.2639 0
15.2001 2.12295 0
16.4668 2.11997 0
17.7279 -0.027363 0
20.2605 -0.0344554 0
20.2732 4.25359 0
17.739 4.26069 0
18.9942 -0.0307947 0
20.2669 2.10966 0
19.0061 4.25726 0
17.7335 2.11676 0
19.0002 2.11333 0
20.2605 -0.0344554 0
22.7932 -0.0424605 0
22.8074 4.24556 0
20.2732 4.25359 0
21.5268 -0.0383441 0
22.8003 2.10165 0
21.5403 4.24969 0
20.2669 2.10966 0
21.5336 2.10577 0
22.7932 -0.0424605 0
25.3259 -0.051375 0
25.3416 4.23663 0
22.8074 4.24556 0
24.0595 -0.0468043 0
25.3338 2.09273 0
24.0745 4.24121 0
22.8003 2.10165 0
24.067 2.0973 0
25.3259 -0.051375 0
27.8586 -0.0611939 0
27.8759 4.22679 0
25.3416 4.23663 0
26.5922 -0.0561717 0
27.8673 2.0829 0
26.6088 4.23183 0
25.3338 2.09273 0
26.6005 2.08792 0
27.8586 -0.0611939 0
30.3913 -0.0719123 0
30.4101 4.21606 0
27.8759 4.22679 0
29.1249 -0.066441 0
30.4007 2.07217 0
29.143 4.22154 0
27.8673 2.0829 0
29.134 2.07764 0
30.3913 -0.0719123 0
32.9241 -0.0835252 0
32.9444 4.20443 0
30.4101 4.21606 0
31.6577 -0.0776073 0
32.9343 2.06055 0
31.6773 4.21035 0
30.4007 2.07217 0
31.6675 2.06647 0
32.9241 -0.0835252 0
35.4569 -0.0960276 0
35.4787 4.1919 0
32.9444 4.20443 0
34.1905 -0.0896655 0
35.4678 2.04803 0
34.2115 4.19827 0
32.9343 2.06055 0
34.201 2.0544 0
35.4569 -0.0960276 0
37.9897 -0.109415 0
38.013 4.1785 0
35.4787 4.1919 0
36.7233 -0.102611 0
38.0013 2.03464 0
36.7458 4.18531 0
35.4678 2.04803 0
36.7346 2.04144 0
37.9897 -0.109415 0
40.5225 -0.123681 0
40.5473 4.16421 0
38.013 4.1785 0
39.2561 -0.116438 0
40.5349 2.02036 0
39.2801 4.17146 0
38.0013 2.03464 0
39.2681 2.02761 0
40.5225 -0.123681 0
43.0553 -0.138823 0
43.0816 4.14905 0
40.5473 4.16421 0
41.7889 -0.131143 0
43.0685 2.0052 0
41.8145 4.15674 0
40.5349 2.02036 0
41.8017 2.01289 0
43.0553 -0.138823 0
45.5882 -0.154834 0
45.616 4.13301 0
43.0816 4.14905 0
44.3218 -0.14672 0
45.6021 1.98918 0
44.3488 4.14114 0
43.0685 2.0052 0
44.3353 1.9973 0
45.5882 -0.154834 0
48.1211 -0.171711 0
48.1503 4.11611 0
45.616 4.13301 0
46.8547 -0.163165 0
48.1358 1.97229 0
46.8832 4.12467 0
45.6021 1.98918 0
46.8689 1.98085 0
48.1211 -0.171711 0
50.6541 -0.189448 0
50.6847 4.09835 0
48.1503 4.11611 0
49.3876 -0.180472 0
50.6694 1.95454 0
49.4175 4.10734 0
48.1358 1.97229 0
49.4026 1.96353 0
50.6541 -0.189448 0
53.187 -0.208041 0
53.2191 4.07974 0
50.6847 4.09835 0
51.9205 -0.198638 0
53.2031 1.93594 0
51.9519 4.08915 0
50.6694 1.95454 0
51.9362 1.94535 0
53.187 -0.208041 0
55.72 -0.227485 0
55.7535 4.06027 0
53.2191 4.07974 0
54.4535 -0.217657 0
55.7368 1.91648 0
54.4863 4.07011 0
53.2031 1.93594 0
54.4699 1.92632 0
55.72 -0.227485 0
58.253 -0.247774 0
58.2879 4.03996 0
55.7535 4.06027 0
56.9865 -0.237524 0
58.2705 1.89618 0
57.0207 4.05022 0
55.7368 1.91648 0
57.0036 1.90644 0
58.253 -0.247774 0
60.786 -0.268904 0
60.8224 4.0188 0
58.2879 4.03996 0
59.5195 -0.258234 0
60.8042 1.87504 0
59.5552 4.02949 0
58.2705 1.89618 0
59.5373 1.88572 0
60.786 -0.268904 0
63.319 -0.290871 0
63.3568 3.99681 0
60.8224 4.0188 0
62.0525 -0.279784 0
63.3379 1.85306 0
62.0896 4.00791 0
60.8042 1.87504 0
62.0711 1.86415 0
63.319 -0.290871 0
65.8521 -0.31367 0
65.8913 3.97399 0
63.3568 3.99681 0
64.5855 -0.302167 0
65.8717 1.83025 0
64.624 3.9855 0
63.3379 1.85306 0
64.6048 1.84176 0
65.8521 -0.31367 0
68.3851 -0.337295 0
68.4257 3.95034 0
65.8913 3.97399 0
67.1186 -0.325379 0
68.4055 1.80661 0
67.1585 3.96227 0
65.8717 1.83025 0
67.1386 1.81853 0
68.3851 -0.337295 0
70.9182 -0.361741 0
70.9602 3.92587 0
68.4257 3.95034 0
69.6517 -0.349416 0
70.9393 1.78215 0
69.693 3.9382 0
68.4055 1.80661 0
69.6724 1.79448 0
70.9182 -0.361741 0
73.4514 -0.387005 0
73.4947 3.90058 0
70.9602 3.92587 0
72.1848 -0.374271 0
73.4731 1.75687 0
72.2275 3.91332 0
70.9393 1.78215 0
72.2062 1.76961 0
73.4514 -0.387005 0
75.9845 -0.413081 0
76.0292 3.87447 0
73.4947 3.90058 0
74.7179 -0.399942 0
76.0069 1.73078 0
74.762 3.88763 0
73.4731 1.75687 0
74.74 1.74393 0
75.9845 -0.413081 0
78.5177 -0.439965 0
78.5638 3.84756 0
76.0292 3.87447 0
77.2511 -0.426422 0
78.5407 1.70388 0
77.2965 3.86112 0
76.0069 1.73078 0
77.2738 1.71743 0
78.5177 -0.439965 0
81.0508 -0.467651 0
81.0983 3.81985 0
78.5638 3.84756 0
79.7842 -0.453708 0
81.0746 1.67618 0
79.831 3.83381 0
78.5407 1.70388 0
79.8077 1.69013 0
81.0508 -0.467651 0
83.584 -0.496134 0
83.6328 3.79134 0
81.0983 3.81985 0
82.3174 -0.481793 0
83.6085 1.64769 0
82.3656 3.80569 0
81.0746 1.67618 0
82.3415 1.66204 0
83.584 -0.496134 0
86.1173 -0.525411 0
86.1674 3.76203 0
83.6328 3.79134 0
84.8506 -0.510674 0
86.1423 1.6184 0
84.9001 3.77678 0
83.6085 1.64769 0
84.8754 1.63314 0
86.1173 -0.525411 0
88.6505 -0.555476 0
88.702 3.73194 0
86.1674 3.76203 0
87.3839 -0.540345 0
88.6763 1.58832 0
87.4347 3.74709 0
86.1423 1.6184 0
87.4093 1.60345 0
88.6505 -0.555476 0
91.1838 -0.586324 0
91.2365 3.70106 0
88.702 3.73194 0
89.9171 -0.570802 0
91.2102 1.55745 0
89.9692 3.7166 0
88.6763 1.58832 0
89.9432 1.57298 0
91.1838 -0.586324 0
93.717 -0.617951 0
93.7711 3.66941 0
91.2365 3.70106 0
92.4504 -0.60204 0
93.7441 1.52581 0
92.5038 3.68533 0
91.2102 1.55745 0
92.4771 1.54173 0
93.717 -0.617951 0
96.2503 -0.650351 0
96.3057 3.63698 0
93.7711 3.66941 0
94.9837 -0.634054 0
96.2781 1.4934 0
95.0384 3.65329 0
93.7441 1.52581 0
95.0111 1.5097 0
96.2503 -0.650351 0
98.7836 -0.68352 0
98.8403 3.60378 0
96.3057 3.63698 0
97.517 -0.666839 0
98.812 1.46021 0
97.573 3.62048 0
96.2781 1.4934 0
97.545 1.4769 0
98.7836 -0.68352 0
101.317 -0.717453 0
101.375 3.56982 0
98.8403 3.60378 0
100.05 -0.700391 0
101.346 1.42626 0
100.108 3.58689 0
98.812 1.46021 0
100.079 1.44333 0
101.317 -0.717453 0
103.85 -0.752145 0
103.91 3.5351 0
101.375 3.56982 0
102.584 -0.734704 0
103.88 1.39156 0
102.642 3.55255 0
101.346 1.42626 0
102.613 1.409 0
103.85 -0.752145 0
106.384 -0.787592 0
106.444 3.49962 0
103.91 3.5351 0
105.117 -0.769774 0
106.414 1.35609 0
105.177 3.51745 0
103.88 1.39156 0
105.147 1.37392 0
106.384 -0.787592 0
108.917 -0.823788 0
108.979 3.46339 0
106.444 3.49962 0
107.65 -0.805596 0
108.948 1.31988 0
107.712 3.4816 0
106.414 1.35609 0
107.681 1.33808 0
108.917 -0.823788 0
111.45 -0.860729 0
111.514 3.42642 0
108.979 3.46339 0
110.184 -0.842165 0
111.482 1.28293 0
110.246 3.445 0
108.948 1.31988 0
110.215 1.3015 0
111.45 -0.860729 0
113.984 -0.898409 0
114.048 3.38871 0
111.514 3.42642 0
112.717 -0.879477 0
114.016 1.24523 0
112.781 3.40766 0
111.482 1.28293 0
112.749 1.26417 0
113.984 -0.898409 0
116.517 -0.936825 0
116.583 3.35026 0
114.048 3.38871 0
115.251 -0.917526 0
116.55 1.2068 0
115.316 3.36958 0
114.016 1.24523 0
115.283 1.2261 0
116.517 -0.936825 0
119.051 -0.975971 0
119.118 3.31109 0
116.583 3.35026 0
117.784 -0.956307 0
119.084 1.16763 0
117.85 3.33076 0
116.55 1.2068 0
117.817 1.18731 0
119.051 -0.975971 0
121.584 -1.01584 0
121.652 3.27118 0
119.118 3.31109 0
120.318 -0.995817 0
121.618 1.12775 0
120.385 3.29122 0
119.084 1.16763 0
120.351 1.14778 0
121.584 -1.01584 0
124.118 -1.05643 0
124.187 3.23056 0
121.652 3.27118 0
122.851 -1.03605 0
124.152 1.08714 0
122.92 3.25096 0
121.618 1.12775 0
122.885 1.10753 0
124.118 -1.05643 0
126.651 -1.09774 0
126.722 3.18922 0
124.187 3.23056 0
125.385 -1.077 0
126.687 1.04581 0
125.454 3.20998 0
124.152 1.08714 0
125.419 1.06656 0
126.651 -1.09774 0
129.185 -1.13976 0
129.256 3.14717 0
126.722 3.18922 0
127.918 -1.11866 0
129.221 1.00378 0
127.989 3.16828 0
126.687 1.04581 0
127.954 1.02488 0
129.185 -1.13976 0
131.718 -1.18249 0
131.791 3.10441 0
129.256 3.14717 0
130.452 -1.16104 0
131.755 0.961036 0
130.524 3.12588 0
129.221 1.00378 0
130.488 0.982495 0
131.718 -1.18249 0
134.252 -1.22591 0
134.326 3.06095 0
131.791 3.10441 0
132.985 -1.20411 0
134.289 0.917593 0
133.059 3.08277 0
131.755 0.961036 0
133.022 0.939402 0
134.252 -1.22591 0
136.786 -1.27004 0
136.861 3.01679 0
134.326 3.06095 0
135.519 -1.24789 0
136.823 0.873453 0
135.593 3.03896 0
134.289 0.917593 0
135.556 0.89561 0
136.786 -1.27004 0
139.319 -1.31485 0
139.395 2.97195 0
136.861 3.01679 0
138.052 -1.29236 0
139.357 0.828621 0
138.128 2.99446 0
136.823 0.873453 0
138.09 0.851123 0
139.319 -1.31485 0
141.853 -1.36035 0
141.93 2.92641 0
139.395 2.97195 0
140.586 -1.33752 0
141.891 0.783103 0
140.663 2.94927 0
139.357 0.828621 0
140.624 0.805948 0
141.853 -1.36035 0
144.386 -1.40654 0
144.465 2.8802 0
141.93 2.92641 0
143.12 -1.38336 0
144.426 0.736902 0
143.198 2.90339 0
141.891 0.783103 0
143.159 0.760088 0
144.386 -1.40654 0
146.92 -1.4534 0
147 2.8333 0
144.465 2.8802 0
145.653 -1.42988 0
146.96 0.690024 0
145.732 2.85683 0
144.426 0.736902 0
145.693 0.713548 0
146.92 -1.4534 0
149.454 -1.50093 0
149.535 2.78573 0
147 2.8333 0
148.187 -1.47708 0
149.494 0.642474 0
148.267 2.8096 0
146.96 0.690024 0
148.227 0.666333 0
[...]
    <PointData>
      <DataArray type="Float64" NumberOfComponents="3" Name="Displacement" format="ascii">
0 0 0
-0.00615591 -0.00306806 -0.00306806
-0.0036706 -0.00103564 -0.00103564
0 0 0
-0.00334996 -0.00191327 -0.00191327
-0.00463658 -0.00185394 -0.00185394
-0.00178107 -0.00037093 -0.00037093
0 0 0
-0.00221119 -0.000817331 -0.000817331
-0.00615591 -0.00306806 -0.00306806
-0.0114823 -0.00532657 -0.00532657
-0.00764536 -0.0029912 -0.0029912
-0.0036706 -0.00103564 -0.00103564
-0.00882678 -0.00415464 -0.00415464
-0.00946743 -0.00404053 -0.00404053
-0.00563906 -0.00191896 -0.00191896
-0.00463658 -0.00185394 -0.00185394
-0.00706564 -0.00291436 -0.00291436
-0.0114823 -0.00532657 -0.00532657
-0.0168565 -0.00805157 -0.00805157
-0.0116561 -0.00567844 -0.00567844
-0.00764536 -0.0029912 -0.0029912
-0.0141598 -0.00660917 -0.00660917
-0.0142278 -0.00677528 -0.00677528
-0.00965308 -0.00424019 -0.00424019
-0.00946743 -0.00404053 -0.00404053
-0.0118538 -0.00531872 -0.00531872
-0.0168565 -0.00805157 -0.00805157
-0.0222754 -0.0115589 -0.0115589
-0.0156472 -0.00917907 -0.00917907
-0.0116561 -0.00567844 -0.00567844
-0.0195619 -0.00969921 -0.00969921
-0.018948 -0.0102752 -0.0102752
-0.013655 -0.0073223 -0.0073223
-0.0142278 -0.00677528 -0.00677528
-0.0165912 -0.00842234 -0.00842234
-0.0222754 -0.0115589 -0.0115589
-0.0277238 -0.015921 -0.015921
-0.0196052 -0.0135512 -0.0135512
-0.0156472 -0.00917907 -0.00917907
-0.0249974 -0.0136302 -0.0136302
-0.0236528 -0.014643 -0.014643
-0.0176301 -0.0112537 -0.0112537
-0.018948 -0.0102752 -0.0102752
-0.0213019 -0.0123474 -0.0123474
-0.0277238 -0.015921 -0.015921
-0.033175 -0.0211868 -0.0211868
-0.0235383 -0.0188282 -0.0188282
-0.0196052 -0.0135512 -0.0135512
-0.0304499 -0.0184398 -0.0184398
-0.0283429 -0.0199116 -0.0199116
-0.0215746 -0.0160756 -0.0160756
-0.0236528 -0.014643 -0.014643
-0.0259997 -0.0171637 -0.0171637
-0.033175 -0.0211868 -0.0211868
-0.0386198 -0.027363 -0.027363
-0.0274482 -0.0250196 -0.0250196
-0.0235383 -0.0188282 -0.0188282
-0.0358988 -0.0241608 -0.0241608
-0.033018 -0.0260949 -0.0260949
-0.025496 -0.0218094 -0.0218094
-0.0283429 -0.0199116 -0.0199116
-0.0306824 -0.0228886 -0.0228886
-0.0386198 -0.027363 -0.027363
-0.0440482 -0.0344554 -0.0344554
-0.0313385 -0.0321279 -0.0321279
-0.0274482 -0.0250196 -0.0250196
-0.0413364 -0.0307947 -0.0307947
-0.0376755 -0.0331946 -0.0331946
-0.0293957 -0.0284593 -0.0284593
-0.033018 -0.0260949 -0.0260949
-0.0353491 -0.0295303 -0.0295303
-0.0440482 -0.0344554 -0.0344554
-0.0494565 -0.0424605 -0.0424605
-0.0352099 -0.0401502 -0.0401502
-0.0313385 -0.0321279 -0.0321279
-0.046755 -0.0383441 -0.0383441
-0.0423142 -0.0412083 -0.0412083
-0.0332765 -0.0360251 -0.0360251
-0.0376755 -0.0331946 -0.0331946
-0.0399973 -0.0370874 -0.0370874
-0.0494565 -0.0424605 -0.0424605
-0.0548417 -0.051375 -0.051375
-0.0390634 -0.0490825 -0.0490825
-0.0352099 -0.0401502 -0.0401502
-0.0521521 -0.0468043 -0.0468043
-0.0469328 -0.0501319 -0.0501319
-0.0371388 -0.0445029 -0.0445029
-0.0423142 -0.0412083 -0.0412083
-0.0446261 -0.0455567 -0.0455567
-0.0548417 -0.051375 -0.051375
-0.0602029 -0.0611939 -0.0611939
-0.0428996 -0.0589197 -0.0589197
-0.0390634 -0.0490825 -0.0490825
-0.0575254 -0.0561717 -0.0561717
-0.0515311 -0.0599604 -0.0599604
-0.0409837 -0.0538883 -0.0538883
-0.0469328 -0.0501319 -0.0501319
-0.0492346 -0.0549333 -0.0549333
-0.0602029 -0.0611939 -0.0611939
-0.0655396 -0.0719123 -0.0719123
-0.0467189 -0.0696569 -0.0696569
-0.0428996 -0.0589197 -0.0589197
-0.0628743 -0.066441 -0.066441
-0.0561089 -0.0706886 -0.0706886
-0.0448114 -0.0641761 -0.0641761
-0.0515311 -0.0599604 -0.0599604
-0.0538226 -0.0652123 -0.0652123
-0.0655396 -0.0719123 -0.0719123
-0.0708517 -0.0835252 -0.0835252
-0.0505216 -0.0812892 -0.0812892
-0.0467189 -0.0696569 -0.0696569
-0.0681987 -0.0776073 -0.0776073
-0.0606661 -0.0823117 -0.0823117
-0.0486223 -0.0753615 -0.0753615
-0.0561089 -0.0706886 -0.0706886
-0.05839 -0.0763886 -0.0763886
-0.0708517 -0.0835252 -0.0835252
-0.0761393 -0.0960276 -0.0960276
-0.054308 -0.0938114 -0.0938114
-0.0505216 -0.0812892 -0.0812892
-0.0734985 -0.0896655 -0.0896655
-0.0652031 -0.0948245 -0.0948245
-0.0524169 -0.0874393 -0.0874393
-0.0606661 -0.0823117 -0.0823117
-0.0629371 -0.0884572 -0.0884572
-0.0761393 -0.0960276 -0.0960276
-0.0814028 -0.109415 -0.109415
-0.0580785 -0.107219 -0.107219
-0.054308 -0.0938114 -0.0938114
-0.0787741 -0.102611 -0.102611
-0.06972 -0.108222 -0.108222
-0.0561952 -0.100405 -0.100405
-0.0652031 -0.0948245 -0.0948245
-0.067464 -0.101413 -0.101413
-0.0814028 -0.109415 -0.109415
-0.0866423 -0.123681 -0.123681
-0.0618332 -0.121506 -0.121506
-0.0580785 -0.107219 -0.107219
-0.0840255 -0.116438 -0.116438
-0.0742171 -0.1225 -0.1225
-0.0599578 -0.114253 -0.114253
-0.06972 -0.108222 -0.108222
-0.071971 -0.115251 -0.115251
-0.0866423 -0.123681 -0.123681
-0.0918582 -0.138823 -0.138823
-0.0655724 -0.136669 -0.136669
-0.0618332 -0.121506 -0.121506
-0.0892532 -0.131143 -0.131143
-0.0786946 -0.137652 -0.137652
-0.0637047 -0.128978 -0.128978
-0.0742171 -0.1225 -0.1225
-0.0764583 -0.129967 -0.129967
-0.0918582 -0.138823 -0.138823
-0.0970507 -0.154834 -0.154834
-0.0692966 -0.152702 -0.152702
-0.0655724 -0.136669 -0.136669
-0.0944574 -0.14672 -0.14672
-0.0831529 -0.153675 -0.153675
-0.0674364 -0.144577 -0.144577
-0.0786946 -0.137652 -0.137652
-0.0809262 -0.145555 -0.145555
-0.0970507 -0.154834 -0.154834
-0.10222 -0.171711 -0.171711
-0.0730058 -0.169601 -0.169601
-0.0692966 -0.152702 -0.152702
-0.0996383 -0.163165 -0.163165
-0.0875922 -0.170564 -0.170564
-0.071153 -0.161044 -0.161044
-0.0831529 -0.153675 -0.153675
-0.0853749 -0.162012 -0.162012
-0.10222 -0.171711 -0.171711
-0.107367 -0.189448 -0.189448
-0.0767004 -0.187361 -0.187361
-0.0730058 -0.169601 -0.169601
-0.104796 -0.180472 -0.180472
-0.0920127 -0.188313 -0.188313
-0.0748549 -0.178374 -0.178374
-0.0875922 -0.170564 -0.170564
-0.0898048 -0.179331 -0.179331
-0.107367 -0.189448 -0.189448
-0.112491 -0.208041 -0.208041
-0.0803806 -0.205976 -0.205976
-0.0767004 -0.187361 -0.187361
-0.109932 -0.198638 -0.198638
-0.0964148 -0.206917 -0.206917
-0.0785423 -0.196562 -0.196562
-0.0920127 -0.188313 -0.188313
-0.0942161 -0.197508 -0.197508
-0.112491 -0.208041 -0.208041
-0.117592 -0.227485 -0.227485
-0.0840467 -0.225443 -0.225443
-0.0803806 -0.205976 -0.205976
-0.115044 -0.217657 -0.217657
-0.100799 -0.226373 -0.226373
-0.0822154 -0.215604 -0.215604
-0.0964148 -0.206917 -0.206917
-0.098609 -0.216539 -0.216539
-0.117592 -0.227485 -0.227485
-0.122672 -0.247774 -0.247774
-0.0876989 -0.245757 -0.245757
-0.0840467 -0.225443 -0.225443
-0.120135 -0.237524 -0.237524
-0.105165 -0.246675 -0.246675
-0.0858745 -0.235494 -0.235494
-0.100799 -0.226373 -0.226373
-0.102984 -0.236419 -0.236419
-0.122672 -0.247774 -0.247774
-0.12773 -0.268904 -0.268904
-0.0913375 -0.266911 -0.266911
-0.0876989 -0.245757 -0.245757
-0.125204 -0.258234 -0.258234
-0.109513 -0.267818 -0.267818
-0.0895199 -0.256229 -0.256229
-0.105165 -0.246675 -0.246675
-0.107341 -0.257142 -0.257142
-0.12773 -0.268904 -0.268904
-0.132766 -0.290871 -0.290871
-0.0949626 -0.288903 -0.288903
-0.0913375 -0.266911 -0.266911
-0.130251 -0.279784 -0.279784
-0.113843 -0.289798 -0.289798
-0.0931517 -0.277803 -0.277803
-0.109513 -0.267818 -0.267818
-0.11168 -0.278704 -0.278704
-0.132766 -0.290871 -0.290871
-0.137781 -0.31367 -0.31367
-0.0985747 -0.311726 -0.311726
-0.0949626 -0.288903 -0.288903
-0.135276 -0.302167 -0.302167
-0.118157 -0.312609 -0.312609
-0.0967703 -0.300211 -0.300211
-0.113843 -0.289798 -0.289798
-0.116002 -0.3011 -0.3011
-0.137781 -0.31367 -0.31367
-0.142774 -0.337295 -0.337295
-0.102174 -0.335376 -0.335376
-0.0985747 -0.311726 -0.311726
-0.14028 -0.325379 -0.325379
-0.122453 -0.336247 -0.336247
-0.100376 -0.323448 -0.323448
-0.118157 -0.312609 -0.312609
-0.120307 -0.324325 -0.324325
-0.142774 -0.337295 -0.337295
-0.147747 -0.361741 -0.361741
-0.10576 -0.359849 -0.359849
-0.102174 -0.335376 -0.335376
-0.145263 -0.349416 -0.349416
-0.126733 -0.360708 -0.360708
-0.103969 -0.34751 -0.34751
-0.122453 -0.336247 -0.336247
-0.124595 -0.348375 -0.348375
-0.147747 -0.361741 -0.361741
-0.152699 -0.387005 -0.387005
-0.109334 -0.385139 -0.385139
-0.10576 -0.359849 -0.359849
-0.150226 -0.374271 -0.374271
-0.130996 -0.385985 -0.385985
-0.107549 -0.372392 -0.372392
-0.126733 -0.360708 -0.360708
-0.128866 -0.373245 -0.373245
-0.152699 -0.387005 -0.387005
-0.157631 -0.413081 -0.413081
-0.112896 -0.411242 -0.411242
-0.109334 -0.385139 -0.385139
-0.155168 -0.399942 -0.399942
-0.135242 -0.412075 -0.412075
-0.111116 -0.398089 -0.398089
-0.130996 -0.385985 -0.385985
-0.133121 -0.398929 -0.398929
-0.157631 -0.413081 -0.413081
-0.162542 -0.439965 -0.439965
-0.116445 -0.438152 -0.438152
-0.112896 -0.411242 -0.411242
-0.160089 -0.426422 -0.426422
-0.139473 -0.438972 -0.438972
-0.114672 -0.424596 -0.424596
-0.135242 -0.412075 -0.412075
-0.13736 -0.425423 -0.425423
-0.162542 -0.439965 -0.439965
-0.167434 -0.467651 -0.467651
-0.119983 -0.465865 -0.465865
-0.116445 -0.438152 -0.438152
-0.164991 -0.453708 -0.453708
-0.143687 -0.466672 -0.466672
-0.118215 -0.451908 -0.451908
-0.139473 -0.438972 -0.438972
-0.141582 -0.452722 -0.452722
-0.167434 -0.467651 -0.467651
-0.172305 -0.496134 -0.496134
-0.123509 -0.494376 -0.494376
-0.119983 -0.465865 -0.465865
-0.169872 -0.481793 -0.481793
-0.147886 -0.49517 -0.49517
-0.121747 -0.480021 -0.480021
-0.143687 -0.466672 -0.466672
-0.145789 -0.480822 -0.480822
-0.172305 -0.496134 -0.496134
-0.177157 -0.525411 -0.525411
-0.127023 -0.523681 -0.523681
-0.123509 -0.494376 -0.494376
-0.174734 -0.510674 -0.510674
-0.152069 -0.524462 -0.524462
-0.125268 -0.50893 -0.50893
-0.147886 -0.49517 -0.49517
-0.149979 -0.509717 -0.509717
-0.177157 -0.525411 -0.525411
-0.181989 -0.555476 -0.555476
-0.130527 -0.553774 -0.553774
-0.127023 -0.523681 -0.523681
-0.179576 -0.540345 -0.540345
-0.156237 -0.554541 -0.554541
-0.128776 -0.538629 -0.538629
-0.152069 -0.524462 -0.524462
-0.154155 -0.539403 -0.539403
-0.181989 -0.555476 -0.555476
-0.186802 -0.586324 -0.586324
-0.134019 -0.58465 -0.58465
-0.130527 -0.553774 -0.553774
-0.184398 -0.570802 -0.570802
-0.160389 -0.585404 -0.585404
-0.132274 -0.569114 -0.569114
-0.156237 -0.554541 -0.554541
-0.158315 -0.569875 -0.569875
-0.186802 -0.586324 -0.586324
-0.191596 -0.617951 -0.617951
-0.1375 -0.616306 -0.616306
-0.134019 -0.58465 -0.58465
-0.189202 -0.60204 -0.60204
-0.164527 -0.617045 -0.617045
-0.135761 -0.600381 -0.600381
-0.160389 -0.585404 -0.585404
-0.16246 -0.601128 -0.601128
-0.191596 -0.617951 -0.617951
-0.196371 -0.650351 -0.650351
-0.140971 -0.648735 -0.648735
-0.1375 -0.616306 -0.616306
-0.193986 -0.634054 -0.634054
-0.16865 -0.649461 -0.649461
-0.139237 -0.632424 -0.632424
-0.164527 -0.617045 -0.617045
-0.16659 -0.633156 -0.633156
-0.196371 -0.650351 -0.650351
-0.201128 -0.68352 -0.68352
-0.144431 -0.681933 -0.681933
-0.140971 -0.648735 -0.648735
-0.198752 -0.666839 -0.666839
-0.172758 -0.682645 -0.682645
-0.142702 -0.665238 -0.665238
-0.16865 -0.649461 -0.649461
-0.170706 -0.665957 -0.665957
-0.201128 -0.68352 -0.68352
-0.205865 -0.717453 -0.717453
-0.14788 -0.715896 -0.715896
-0.144431 -0.681933 -0.681933
-0.203499 -0.700391 -0.700391
-0.176852 -0.716593 -0.716593
-0.146157 -0.698819 -0.698819
-0.172758 -0.682645 -0.682645
-0.174807 -0.699524 -0.699524
-0.205865 -0.717453 -0.717453
-0.210585 -0.752145 -0.752145
-0.15132 -0.750618 -0.750618
-0.14788 -0.715896 -0.715896
-0.208227 -0.734704 -0.734704
-0.180931 -0.751301 -0.751301
-0.149601 -0.733162 -0.733162
-0.176852 -0.716593 -0.716593
-0.178893 -0.733852 -0.733852
-0.210585 -0.752145 -0.752145
-0.215286 -0.787592 -0.787592
-0.154749 -0.786095 -0.786095
-0.15132 -0.750618 -0.750618
-0.212937 -0.769774 -0.769774
-0.184996 -0.786763 -0.786763
-0.153036 -0.768263 -0.768263
-0.180931 -0.751301 -0.751301
-0.182965 -0.768938 -0.768938
-0.215286 -0.787592 -0.787592
-0.219969 -0.823788 -0.823788
-0.158169 -0.822322 -0.822322
-0.154749 -0.786095 -0.786095
-0.217629 -0.805596 -0.805596
-0.189047 -0.822975 -0.822975
-0.15646 -0.804115 -0.804115
-0.184996 -0.786763 -0.786763
-0.187023 -0.804776 -0.804776
-0.219969 -0.823788 -0.823788
-0.224634 -0.860729 -0.860729
-0.161578 -0.859293 -0.859293
-0.158169 -0.822322 -0.822322
-0.222303 -0.842165 -0.842165
-0.193085 -0.859932 -0.859932
-0.159875 -0.840714 -0.840714
-0.189047 -0.822975 -0.822975
-0.191068 -0.841361 -0.841361
-0.224634 -0.860729 -0.860729
-0.229281 -0.898409 -0.898409
-0.164978 -0.897005 -0.897005
-0.161578 -0.859293 -0.859293
-0.226959 -0.879477 -0.879477
-0.197108 -0.897628 -0.897628
-0.163279 -0.878057 -0.878057
-0.193085 -0.859932 -0.859932
-0.195098 -0.878688 -0.878688
-0.229281 -0.898409 -0.898409
-0.23391 -0.936825 -0.936825
-0.168369 -0.935452 -0.935452
-0.164978 -0.897005 -0.897005
-0.231598 -0.917526 -0.917526
-0.201118 -0.93606 -0.93606
-0.166675 -0.916137 -0.916137
-0.197108 -0.897628 -0.897628
-0.199115 -0.916753 -0.916753
-0.23391 -0.936825 -0.936825
-0.238522 -0.975971 -0.975971
-0.17175 -0.974629 -0.974629
-0.168369 -0.935452 -0.935452
-0.236218 -0.956307 -0.956307
-0.205115 -0.975223 -0.975223
-0.170061 -0.95495 -0.95495
-0.201118 -0.93606 -0.93606
-0.203118 -0.955551 -0.955551
-0.238522 -0.975971 -0.975971
-0.243117 -1.01584 -1.01584
-0.175122 -1.01453 -1.01453
-0.17175 -0.974629 -0.974629
-0.240822 -0.995817 -0.995817
-0.209098 -1.01511 -1.01511
-0.173437 -0.99449 -0.99449
-0.205115 -0.975223 -0.975223
-0.207108 -0.995076 -0.995076
-0.243117 -1.01584 -1.01584
-0.247694 -1.05643 -1.05643
-0.178485 -1.05516 -1.05516
-0.175122 -1.01453 -1.01453
-0.245408 -1.03605 -1.03605
-0.213068 -1.05572 -1.05572
-0.176805 -1.03475 -1.03475
-0.209098 -1.01511 -1.01511
-0.211085 -1.03533 -1.03533
-0.247694 -1.05643 -1.05643
-0.252254 -1.09774 -1.09774
-0.18184 -1.0965 -1.0965
-0.178485 -1.05516 -1.05516
-0.249976 -1.077 -1.077
-0.217026 -1.09704 -1.09704
-0.180164 -1.07574 -1.07574
-0.213068 -1.05572 -1.05572
-0.215049 -1.07629 -1.07629
-0.252254 -1.09774 -1.09774
-0.256798 -1.13976 -1.13976
-0.185185 -1.13855 -1.13855
-0.18184 -1.0965 -1.0965
-0.254528 -1.11866 -1.11866
-0.22097 -1.13908 -1.13908
-0.183513 -1.11743 -1.11743
-0.217026 -1.09704 -1.09704
-0.218999 -1.11797 -1.11797
-0.256798 -1.13976 -1.13976
-0.261324 -1.18249 -1.18249
-0.188521 -1.18131 -1.18131
-0.185185 -1.13855 -1.13855
-0.259063 -1.16104 -1.16104
-0.224901 -1.18182 -1.18182
-0.186854 -1.15984 -1.15984
-0.22097 -1.13908 -1.13908
-0.222937 -1.16036 -1.16036
-0.261324 -1.18249 -1.18249
-0.265834 -1.22591 -1.22591
-0.19185 -1.22476 -1.22476
-0.188521 -1.18131 -1.18131
-0.263581 -1.20411 -1.20411
-0.22882 -1.22526 -1.22526
-0.190187 -1.20295 -1.20295
-0.224901 -1.18182 -1.18182
-0.226862 -1.20346 -1.20346
-0.265834 -1.22591 -1.22591
-0.270327 -1.27004 -1.27004
-0.195169 -1.26892 -1.26892
-0.19185 -1.22476 -1.22476
-0.268082 -1.24789 -1.24789
-0.232726 -1.2694 -1.2694
-0.19351 -1.24676 -1.24676
-0.22882 -1.22526 -1.22526
-0.230775 -1.24725 -1.24725
-0.270327 -1.27004 -1.27004
-0.274803 -1.31485 -1.31485
-0.19848 -1.31377 -1.31377
-0.195169 -1.26892 -1.26892
-0.272567 -1.29236 -1.29236
-0.23662 -1.31424 -1.31424
-0.196826 -1.29126 -1.29126
-0.232726 -1.2694 -1.2694
-0.234675 -1.29173 -1.29173
-0.274803 -1.31485 -1.31485
-0.279263 -1.36035 -1.36035
-0.201783 -1.3593 -1.3593
-0.19848 -1.31377 -1.31377
-0.277035 -1.33752 -1.33752
-0.240502 -1.35975 -1.35975
-0.200133 -1.33645 -1.33645
-0.23662 -1.31424 -1.31424
-0.238562 -1.33691 -1.33691
-0.279263 -1.36035 -1.36035
-0.283706 -1.40654 -1.40654
-0.205078 -1.40552 -1.40552
-0.201783 -1.3593 -1.3593
-0.281487 -1.38336 -1.38336
-0.244371 -1.40595 -1.40595
-0.203432 -1.38233 -1.38233
-0.240502 -1.35975 -1.35975
-0.242438 -1.38277 -1.38277
-0.283706 -1.40654 -1.40654
-0.288134 -1.4534 -1.4534
-0.208365 -1.45241 -1.45241
-0.205078 -1.40552 -1.40552
-0.285922 -1.42988 -1.42988
-0.248228 -1.45283 -1.45283
-0.206722 -1.42888 -1.42888
-0.244371 -1.40595 -1.40595
-0.246301 -1.42931 -1.42931
-0.288134 -1.4534 -1.4534
-0.292545 -1.50093 -1.50093
-0.211644 -1.49998 -1.49998
-0.208365 -1.45241 -1.45241
-0.290341 -1.47708 -1.47708
-0.252073 -1.50038 -1.50038
-0.210005 -1.47611 -1.47611
-0.248228 -1.45283 -1.45283
-0.250152 -1.47652 -1.47652
-0.292545 -1.50093 -1.50093
-0.29694 -1.54913 -1.54913
-0.214914 -1.54821 -1.54821
-0.211644 -1.49998 -1.49998
-0.294745 -1.52495 -1.52495
-0.255906 -1.5486 -1.5486
-0.21328 -1.52401 -1.52401
-0.252073 -1.50038 -1.50038
-0.253991 -1.52441 -1.52441
-0.29694 -1.54913 -1.54913
-0.301319 -1.59799 -1.59799
-0.218178 -1.59711 -1.59711
-0.214914 -1.54821 -1.54821
-0.299132 -1.57348 -1.57348
-0.259727 -1.59748 -1.59748
-0.216547 -1.57258 -1.57258
-0.255906 -1.5486 -1.5486
-0.257818 -1.57296 -1.57296
-0.301319 -1.59799 -1.59799
-0.305682 -1.64751 -1.64751
-0.221433 -1.64667 -1.64667
-0.218178 -1.59711 -1.59711
-0.303503 -1.62267 -1.62267
-0.263536 -1.64702 -1.64702
-0.219806 -1.62181 -1.62181
-0.259727 -1.59748 -1.59748
-0.261633 -1.62217 -1.62217
-0.305682 -1.64751 -1.64751
-0.31003 -1.69769 -1.69769
-0.224681 -1.69688 -1.69688
-0.221433 -1.64667 -1.64667
-0.307858 -1.67252 -1.67252
-0.267334 -1.69721 -1.69721
-0.223058 -1.67169 -1.67169
-0.263536 -1.64702 -1.64702
-0.265436 -1.67204 -1.67204
-0.31003 -1.69769 -1.69769
-0.314361 -1.74851 -1.74851
-0.227921 -1.74773 -1.74773
-0.224681 -1.69688 -1.69688
-0.312197 -1.72302 -1.72302
-0.271119 -1.74805 -1.74805
-0.226302 -1.72222 -1.72222
-0.267334 -1.69721 -1.69721
-0.269228 -1.72255 -1.72255
-0.314361 -1.74851 -1.74851
-0.318677 -1.79998 -1.79998
-0.231153 -1.79923 -1.79923
-0.227921 -1.74773 -1.74773
-0.316521 -1.77416 -1.77416
-0.274894 -1.79954 -1.79954
-0.229538 -1.7734 -1.7734
-0.271119 -1.74805 -1.74805
-0.273008 -1.77372 -1.77372
-0.318677 -1.79998 -1.79998
-0.322977 -1.85208 -1.85208
-0.234379 -1.85137 -1.85137
-0.231153 -1.79923 -1.79923
-0.320829 -1.82595 -1.82595
-0.278656 -1.85166 -1.85166
-0.232767 -1.82522 -1.82522
-0.274894 -1.79954 -1.79954
-0.276777 -1.82552 -1.82552
-0.322977 -1.85208 -1.85208
-0.327262 -1.90482 -1.90482
-0.237596 -1.90415 -1.90415
-0.234379 -1.85137 -1.85137
-0.325122 -1.87837 -1.87837
-0.282408 -1.90442 -1.90442
-0.235988 -1.87768 -1.87768
-0.278656 -1.85166 -1.85166
-0.280533 -1.87796 -1.87796
-0.327262 -1.90482 -1.90482
-0.331531 -1.95819 -1.95819
-0.240807 -1.95755 -1.95755
-0.237596 -1.90415 -1.90415
-0.329398 -1.93143 -1.93143
-0.286147 -1.9578 -1.9578
-0.239203 -1.93077 -1.93077
-0.282408 -1.90442 -1.90442
-0.284279 -1.93103 -1.93103
-0.331531 -1.95819 -1.95819
-0.335785 -2.01218 -2.01218
-0.24401 -2.01157 -2.01157
-0.240807 -1.95755 -1.95755
-0.33366 -1.98511 -1.98511
-0.289876 -2.01181 -2.01181
-0.242409 -1.98448 -1.98448
-0.286147 -1.9578 -1.9578
-0.288013 -1.98473 -1.98473
-0.335785 -2.01218 -2.01218
-0.340023 -2.06679 -2.06679
-0.247206 -2.06622 -2.06622
-0.24401 -2.01157 -2.01157
-0.337906 -2.03941 -2.03941
-0.293593 -2.06644 -2.06644
-0.245609 -2.03882 -2.03882
-0.289876 -2.01181 -2.01181
-0.291736 -2.03905 -2.03905
-0.340023 -2.06679 -2.06679
-0.344246 -2.12202 -2.12202
-0.250395 -2.12148 -2.12148
-0.247206 -2.06622 -2.06622
-0.342136 -2.09433 -2.09433
-0.297299 -2.12168 -2.12168
-0.248801 -2.09377 -2.09377
-0.293593 -2.06644 -2.06644
-0.295447 -2.09399 -2.09399
-0.344246 -2.12202 -2.12202
-0.348454 -2.17785 -2.17785
-0.253577 -2.17735 -2.17735
-0.250395 -2.12148 -2.12148
-0.346352 -2.14986 -2.14986
-0.300993 -2.17754 -2.17754
-0.251987 -2.14934 -2.14934
-0.297299 -2.12168 -2.12168
-0.299148 -2.14953 -2.14953
-0.348454 -2.17785 -2.17785
-0.352646 -2.23429 -2.23429
-0.256751 -2.23383 -2.23383
-0.253577 -2.17735 -2.17735
-0.350552 -2.206 -2.206
-0.304677 -2.23399 -2.23399
-0.255165 -2.20551 -2.20551
-0.300993 -2.17754 -2.17754
-0.302837 -2.20569 -2.20569
-0.352646 -2.23429 -2.23429
-0.356823 -2.29133 -2.29133
-0.259919 -2.2909 -2.2909
-0.256751 -2.23383 -2.23383
-0.354736 -2.26274 -2.26274
-0.308349 -2.29105 -2.29105
-0.258336 -2.26229 -2.26229
-0.304677 -2.23399 -2.23399
-0.306514 -2.26245 -2.26245
-0.356823 -2.29133 -2.29133
-0.360985 -2.34897 -2.34897
-0.263079 -2.34857 -2.34857