<?xml version="1.0"?>
<VTKFile type="UnstructuredGrid">
  <UnstructuredGrid>
  <Piece NumberOfPoints="12411"  NumberOfCells="1379">
    <Points>
      <DataArray type="Float64" NumberOfComponents="3" format="ascii">
0 0 0
2.52807 -0.00497841 0
2.5321 4.28404 0
0 4.28571 0
1.26359 -0.00310614 0
2.53054 2.13985 0
1.26614 4.28511 0
0 2.14286 0
1.26544 2.14153 0
2.52807 -0.00497841 0
5.05748 -0.00863868 0
5.06371 4.28087 0
2.5321 4.28404 0
3.79276 -0.00673938 0
5.06075 2.13631 0
3.79794 4.2826 0
2.53054 2.13985 0
3.79562 2.13813 0
5.05748 -0.00863868 0
7.58682 -0.0130554 0
7.59526 4.27651 0
5.06371 4.28087 0
6.32217 -0.0107174 0
7.59109 2.13187 0
6.32949 4.27884 0
5.06075 2.13631 0
6.32591 2.13423 0
7.58682 -0.0130554 0
10.1161 -0.018742 0
10.1268 4.27083 0
7.59526 4.27651 0
8.85146 -0.0157266 0
10.1215 2.1262 0
8.86105 4.27384 0
7.59109 2.13187 0
8.85628 2.1292 0
10.1161 -0.018742 0
12.6453 -0.0258154 0
12.6585 4.26374 0
10.1268 4.27083 0
11.3807 -0.0221005 0
12.6519 2.11911 0
11.3927 4.26746 0
10.1215 2.1262 0
11.3867 2.12284 0
12.6453 -0.0258154 0
15.1745 -0.0343551 0
15.1902 4.25518 0
12.6585 4.26374 0
13.9099 -0.0299001 0
15.1823 2.11057 0
13.9243 4.25964 0
12.6519 2.11911 0
13.9171 2.11502 0
15.1745 -0.0343551 0
17.7037 -0.0443718 0
17.7219 4.24513 0
15.1902 4.25518 0
16.4391 -0.0391783 0
17.7128 2.10054 0
16.456 4.25034 0
15.1823 2.11057 0
16.4476 2.10574 0
17.7037 -0.0443718 0
20.233 -0.0558748 0
20.2536 4.2336 0
17.7219 4.24513 0
18.9683 -0.0499376 0
20.2433 2.08902 0
18.9877 4.23955 0
17.7128 2.10054 0
18.9781 2.09496 0
20.233 -0.0558748 0
22.7622 -0.0688584 0
22.7854 4.22058 0
20.2536 4.2336 0
21.4976 -0.0621819 0
22.7738 2.07602 0
21.5195 4.22727 0
20.2433 2.08902 0
21.5086 2.0827 0
22.7622 -0.0688584 0
25.2915 -0.0833171 0
25.3172 4.20609 0
22.7854 4.22058 0
24.0269 -0.0759038 0
25.3044 2.06154 0
24.0513 4.21352 0
22.7738 2.07602 0
24.0391 2.06897 0
25.2915 -0.0833171 0
27.8209 -0.0992428 0
27.849 4.19013 0
25.3172 4.20609 0
26.5562 -0.0910971 0
27.835 2.0456 0
26.5831 4.19829 0
25.3044 2.06154 0
26.5697 2.05375 0
27.8209 -0.0992428 0
30.3502 -0.116627 0
30.3808 4.17271 0
27.849 4.19013 0
29.0855 -0.107753 0
30.3656 2.0282 0
29.1149 4.1816 0
27.835 2.0456 0
29.1003 2.03708 0
30.3502 -0.116627 0
32.8797 -0.135463 0
32.9127 4.15383 0
30.3808 4.17271 0
31.6149 -0.125864 0
32.8962 2.00934 0
31.6467 4.16345 0
30.3656 2.0282 0
31.6309 2.01895 0
32.8797 -0.135463 0
35.4091 -0.155741 0
35.4446 4.13351 0
32.9127 4.15383 0
34.1444 -0.145422 0
35.4269 1.98904 0
34.1786 4.14385 0
32.8962 2.00934 0
34.1615 1.99937 0
35.4091 -0.155741 0
37.9386 -0.177454 0
37.9765 4.11176 0
35.4446 4.13351 0
36.6738 -0.166419 0
37.9576 1.96731 0
36.7105 4.12282 0
35.4269 1.98904 0
36.6922 1.97835 0
37.9386 -0.177454 0
40.4681 -0.200594 0
40.5084 4.08858 0
37.9765 4.11176 0
39.2033 -0.188846 0
40.4883 1.94414 0
39.2424 4.10035 0
37.9576 1.96731 0
39.2229 1.9559 0
40.4681 -0.200594 0
42.9976 -0.225153 0
43.0404 4.06397 0
40.5084 4.08858 0
41.7329 -0.212697 0
43.019 1.91956 0
41.7744 4.07645 0
40.4883 1.94414 0
41.7537 1.93203 0
42.9976 -0.225153 0
45.5272 -0.251123 0
45.5723 4.03796 0
43.0404 4.06397 0
44.2624 -0.237962 0
45.5498 1.89357 0
44.3063 4.05114 0
43.019 1.91956 0
44.2844 1.90674 0
45.5272 -0.251123 0
48.0568 -0.278497 0
48.1043 4.01054 0
45.5723 4.03796 0
46.792 -0.264635 0
48.0806 1.86617 0
46.8383 4.02443 0
45.5498 1.89357 0
46.8152 1.88005 0
48.0568 -0.278497 0
50.5865 -0.307266 0
50.6363 3.98172 0
48.1043 4.01054 0
49.3217 -0.292708 0
50.6114 1.83738 0
49.3703 3.99631 0
48.0806 1.86617 0
49.346 1.85195 0
50.5865 -0.307266 0
53.1162 -0.337423 0
53.1683 3.95152 0
50.6363 3.98172 0
51.8513 -0.322172 0
53.1423 1.8072 0
51.9023 3.9668 0
50.6114 1.83738 0
51.8769 1.82246 0
53.1162 -0.337423 0
55.6459 -0.36896 0
55.7004 3.91993 0
53.1683 3.95152 0
54.381 -0.35302 0
55.6732 1.77563 0
54.4343 3.9359 0
53.1423 1.8072 0
54.4077 1.79159 0
55.6459 -0.36896 0
58.1756 -0.40187 0
58.2324 3.88697 0
55.7004 3.91993 0
56.9107 -0.385244 0
58.2041 1.7427 0
56.9664 3.90362 0
55.6732 1.77563 0
56.9386 1.75934 0
58.1756 -0.40187 0
60.7054 -0.436143 0
60.7645 3.85265 0
58.2324 3.88697 0
59.4405 -0.418836 0
60.735 1.7084 0
59.4985 3.86998 0
58.2041 1.7427 0
59.4695 1.72572 0
60.7054 -0.436143 0
63.2352 -0.471773 0
63.2966 3.81697 0
60.7645 3.85265 0
61.9703 -0.453789 0
63.2659 1.67274 0
62.0305 3.83498 0
60.735 1.7084 0
62.0004 1.69074 0
63.2352 -0.471773 0
65.765 -0.508752 0
65.8287 3.77993 0
63.2966 3.81697 0
64.5001 -0.490095 0
65.7969 1.63573 0
64.5626 3.79862 0
63.2659 1.67274 0
64.5314 1.65441 0
65.765 -0.508752 0
68.2948 -0.547072 0
68.3608 3.74156 0
65.8287 3.77993 0
67.0299 -0.527745 0
68.3278 1.59739 0
67.0947 3.76091 0
65.7969 1.63573 0
67.0624 1.61673 0
68.2948 -0.547072 0
70.8247 -0.586725 0
70.8929 3.70185 0
68.3608 3.74156 0
69.5598 -0.566733 0
70.8588 1.55771 0
69.6268 3.72187 0
68.3278 1.59739 0
69.5933 1.57771 0
70.8247 -0.586725 0
73.3546 -0.627704 0
73.425 3.66082 0
70.8929 3.70185 0
72.0896 -0.60705 0
73.3899 1.5167 0
72.159 3.6815 0
70.8588 1.55771 0
72.1243 1.53737 0
73.3546 -0.627704 0
75.8845 -0.67 0
75.9572 3.61846 0
73.425 3.66082 0
74.6196 -0.648688 0
75.9209 1.47437 0
74.6911 3.6398 0
73.3899 1.5167 0
74.6554 1.4957 0
75.8845 -0.67 0
78.4145 -0.713606 0
78.4894 3.5748 0
75.9572 3.61846 0
77.1495 -0.69164 0
78.4519 1.43074 0
77.2233 3.59679 0
75.9209 1.47437 0
77.1864 1.45272 0
78.4145 -0.713606 0
80.9444 -0.758514 0
81.0215 3.52983 0
78.4894 3.5748 0
79.6795 -0.735897 0
80.983 1.3858 0
79.7554 3.55248 0
78.4519 1.43074 0
79.7175 1.40843 0
80.9444 -0.758514 0
83.4744 -0.804715 0
83.5537 3.48357 0
81.0215 3.52983 0
82.2094 -0.781453 0
83.5141 1.33957 0
82.2876 3.50686 0
80.983 1.3858 0
82.2486 1.36284 0
83.4744 -0.804715 0
86.0045 -0.852204 0
86.0859 3.43602 0
83.5537 3.48357 0
84.7394 -0.828299 0
86.0452 1.29205 0
84.8198 3.45996 0
83.5141 1.33957 0
84.7797 1.31597 0
86.0045 -0.852204 0
88.5345 -0.90097 0
88.6181 3.38719 0
86.0859 3.43602 0
87.2695 -0.876428 0
88.5763 1.24325 0
87.352 3.41177 0
86.0452 1.29205 0
87.3108 1.26781 0
88.5345 -0.90097 0
91.0646 -0.951008 0
91.1503 3.33709 0
88.6181 3.38719 0
89.7995 -0.92583 0
91.1075 1.19318 0
89.8842 3.3623 0
88.5763 1.24325 0
89.8419 1.21837 0
91.0646 -0.951008 0
93.5946 -1.00231 0
93.6825 3.28573 0
91.1503 3.33709 0
92.3296 -0.9765 0
93.6386 1.14185 0
92.4164 3.31157 0
91.1075 1.19318 0
92.373 1.16767 0
93.5946 -1.00231 0
96.1247 -1.05486 0
96.2147 3.23311 0
93.6825 3.28573 0
94.8597 -1.02843 0
96.1698 1.08926 0
94.9486 3.25958 0
93.6386 1.14185 0
94.9042 1.11571 0
96.1247 -1.05486 0
98.6549 -1.10867 0
98.747 3.17924 0
96.2147 3.23311 0
97.3898 -1.08161 0
98.701 1.03542 0
97.4809 3.20633 0
96.1698 1.08926 0
97.4354 1.06249 0
98.6549 -1.10867 0
101.185 -1.16371 0
101.279 3.12413 0
98.747 3.17924 0
99.9199 -1.13603 0
101.232 0.980346 0
100.013 3.15184 0
98.701 1.03542 0
99.9665 1.00804 0
101.185 -1.16371 0
103.715 -1.21998 0
103.811 3.0678 0
101.279 3.12413 0
102.45 -1.19169 0
103.763 0.924038 0
102.545 3.09612 0
101.232 0.980346 0
102.498 0.952345 0
103.715 -1.21998 0
106.245 -1.27748 0
106.344 3.01023 0
103.811 3.0678 0
104.98 -1.24858 0
106.295 0.866506 0
105.078 3.03917 0
103.763 0.924038 0
105.029 0.895425 0
106.245 -1.27748 0
108.776 -1.33619 0
108.876 2.95145 0
106.344 3.01023 0
107.51 -1.30668 0
108.826 0.807758 0
107.61 2.98099 0
106.295 0.866506 0
107.56 0.837284 0
108.776 -1.33619 0
111.306 -1.39611 0
111.408 2.89146 0
108.876 2.95145 0
110.041 -1.366 0
111.357 0.747801 0
110.142 2.92161 0
108.826 0.807758 0
110.091 0.77793 0
111.306 -1.39611 0
113.836 -1.45724 0
113.94 2.83027 0
111.408 2.89146 0
112.571 -1.42652 0
113.888 0.686644 0
112.674 2.86101 0
111.357 0.747801 0
112.623 0.717372 0
113.836 -1.45724 0
116.366 -1.51955 0
116.473 2.76788 0
113.94 2.83027 0
115.101 -1.48824 0
116.42 0.624294 0
115.207 2.79923 0
113.888 0.686644 0
115.154 0.655618 0
116.366 -1.51955 0
118.897 -1.58305 0
119.005 2.70431 0
116.473 2.76788 0
117.631 -1.55115 0
118.951 0.560759 0
117.739 2.73625 0
116.42 0.624294 0
117.685 0.592674 0
118.897 -1.58305 0
121.427 -1.64773 0
121.537 2.63957 0
119.005 2.70431 0
120.162 -1.61524 0
121.482 0.496046 0
120.271 2.67209 0
118.951 0.560759 0
120.216 0.528549 0
121.427 -1.64773 0
123.957 -1.71357 0
124.07 2.57365 0
121.537 2.63957 0
122.692 -1.6805 0
124.013 0.430164 0
122.803 2.60676 0
121.482 0.496046 0
122.748 0.463251 0
123.957 -1.71357 0
126.487 -1.78058 0
126.602 2.50657 0
124.07 2.57365 0
125.222 -1.74693 0
126.545 0.363121 0
125.336 2.54026 0
124.013 0.430164 0
125.279 0.396787 0
126.487 -1.78058 0
129.018 -1.84874 0
129.134 2.43834 0
126.602 2.50657 0
127.753 -1.81451 0
129.076 0.294924 0
127.868 2.4726 0
126.545 0.363121 0
127.81 0.329166 0
129.018 -1.84874 0
131.548 -1.91804 0
131.666 2.36896 0
129.134 2.43834 0
130.283 -1.88325 0
131.607 0.225581 0
130.4 2.40379 0
129.076 0.294924 0
130.342 0.260395 0
131.548 -1.91804 0
134.079 -1.98849 0
134.199 2.29844 0
131.666 2.36896 0
132.813 -1.95312 0
134.139 0.1551 0
132.933 2.33384 0
131.607 0.225581 0
132.873 0.190482 0
134.079 -1.98849 0
136.609 -2.06006 0
136.731 2.2268 0
134.199 2.29844 0
135.344 -2.02413 0
136.67 0.0834884 0
135.465 2.26276 0
134.139 0.1551 0
135.404 0.119435 0
136.609 -2.06006 0
139.139 -2.13276 0
139.263 2.15403 0
136.731 2.2268 0
137.874 -2.09627 0
139.201 0.0107546 0
137.997 2.19055 0
136.67 0.0834884 0
137.936 0.0472613 0
139.139 -2.13276 0
141.67 -2.20657 0
141.796 2.08014 0
139.263 2.15403 0
140.405 -2.16952 0
141.733 -0.0630938 0
140.529 2.11722 0
139.201 0.0107546 0
140.467 -0.0260308 0
141.67 -2.20657 0
144.2 -2.28148 0
144.328 2.00515 0
141.796 2.08014 0
142.935 -2.24389 0
144.264 -0.138049 0
143.062 2.04278 0
141.733 -0.0630938 0
142.998 -0.100434 0
144.2 -2.28148 0
146.731 -2.3575 0
146.86 1.92906 0
144.328 2.00515 0
145.465 -2.31935 0
146.795 -0.214103 0
145.594 1.96724 0
144.264 -0.138049 0
145.53 -0.175939 0
146.731 -2.3575 0
149.261 -2.4346 0
149.392 1.85188 0
146.86 1.92906 0
147.996 -2.39591 0
149.327 -0.291248 0
148.126 1.8906 0
[...]
    <PointData>
      <DataArray type="Float64" NumberOfComponents="3" Name="Displacement" format="ascii">
0 0 0
-0.0100042 -0.00497841 -0.00497841
-0.00596671 -0.00167818 -0.00167818
0 0 0
-0.00544508 -0.00310614 -0.00310614
-0.00753602 -0.00300743 -0.00300743
-0.00289501 -0.000600547 -0.000600547
0 0 0
-0.00359367 -0.00132624 -0.00132624
-0.0100042 -0.00497841 -0.00497841
-0.0186598 -0.00863868 -0.00863868
-0.0124285 -0.00484885 -0.00484885
-0.00596671 -0.00167818 -0.00167818
-0.0143441 -0.00673938 -0.00673938
-0.015388 -0.00655165 -0.00655165
-0.00916684 -0.00311034 -0.00311034
-0.00753602 -0.00300743 -0.00300743
-0.0114842 -0.00472641 -0.00472641
-0.0186598 -0.00863868 -0.00863868
-0.0273951 -0.0130554 -0.0130554
-0.0189491 -0.00920646 -0.00920646
-0.0124285 -0.00484885 -0.00484885
-0.0230117 -0.0107174 -0.0107174
-0.0231261 -0.0109851 -0.0109851
-0.0156926 -0.0068741 -0.0068741
-0.015388 -0.00655165 -0.00655165
-0.0192669 -0.00862359 -0.00862359
-0.0273951 -0.0130554 -0.0130554
-0.0362045 -0.018742 -0.018742
-0.0254385 -0.0148843 -0.0148843
-0.0189491 -0.00920646 -0.00920646
-0.0317931 -0.0157266 -0.0157266
-0.0307999 -0.0166604 -0.0166604
-0.0221991 -0.0118726 -0.0118726
-0.0231261 -0.0109851 -0.0109851
-0.0269682 -0.0136557 -0.0136557
-0.0362045 -0.018742 -0.018742
-0.0450634 -0.0258154 -0.0258154
-0.0318754 -0.0219768 -0.0219768
-0.0254385 -0.0148843 -0.0148843
-0.0406302 -0.0221005 -0.0221005
-0.0384503 -0.0237446 -0.0237446
-0.0286631 -0.0182497 -0.0182497
-0.0307999 -0.0166604 -0.0166604
-0.0346274 -0.0200212 -0.0200212
-0.0450634 -0.0258154 -0.0258154
-0.0539284 -0.0343551 -0.0343551
-0.0382735 -0.0305381 -0.0305381
-0.0318754 -0.0219768 -0.0219768
-0.0494966 -0.0299001 -0.0299001
-0.0460784 -0.0322905 -0.0322905
-0.0350789 -0.0260723 -0.0260723
-0.0384503 -0.0237446 -0.0237446
-0.0422672 -0.0278332 -0.0278332
-0.0539284 -0.0343551 -0.0343551
-0.0627849 -0.0443718 -0.0443718
-0.0446361 -0.0405834 -0.0405834
-0.0382735 -0.0305381 -0.0305381
-0.0583587 -0.0391783 -0.0391783
-0.0536842 -0.0423207 -0.0423207
-0.0414589 -0.0353749 -0.0353749
-0.0460784 -0.0322905 -0.0322905
-0.0498843 -0.0371196 -0.0371196
-0.0627849 -0.0443718 -0.0443718
-0.0716171 -0.0558748 -0.0558748
-0.050969 -0.0521166 -0.0521166
-0.0446361 -0.0405834 -0.0405834
-0.0672046 -0.0499376 -0.0499376
-0.0612637 -0.0538378 -0.0538378
-0.0478061 -0.0461642 -0.0461642
-0.0536842 -0.0423207 -0.0423207
-0.0574774 -0.0478936 -0.0478936
-0.0716171 -0.0558748 -0.0558748
-0.080419 -0.0688584 -0.0688584
-0.0572739 -0.065133 -0.065133
-0.050969 -0.0521166 -0.0521166
-0.0760221 -0.0621819 -0.0621819
-0.0688152 -0.0668379 -0.0668379
-0.0541248 -0.0584398 -0.0584398
-0.0612637 -0.0538378 -0.0538378
-0.065043 -0.0601528 -0.0601528
-0.080419 -0.0688584 -0.0688584
-0.0891863 -0.0833171 -0.0833171
-0.0635528 -0.079626 -0.079626
-0.0572739 -0.065133 -0.065133
-0.0848071 -0.0759038 -0.0759038
-0.0763371 -0.081314 -0.081314
-0.0604165 -0.0721954 -0.0721954
-0.0688152 -0.0668379 -0.0668379
-0.0725799 -0.0738919 -0.0738919
-0.0891863 -0.0833171 -0.0833171
-0.0979178 -0.0992428 -0.0992428
-0.0698068 -0.0955874 -0.0955874
-0.0635528 -0.079626 -0.079626
-0.0935566 -0.0910971 -0.0910971
-0.0838291 -0.0972582 -0.0972582
-0.0666829 -0.0874236 -0.0874236
-0.0763371 -0.081314 -0.081314
-0.0800868 -0.0891031 -0.0891031
-0.0979178 -0.0992428 -0.0992428
-0.106613 -0.116627 -0.116627
-0.0760369 -0.113009 -0.113009
-0.0698068 -0.0955874 -0.0955874
-0.10227 -0.107753 -0.107753
-0.0912913 -0.114662 -0.114662
-0.0729248 -0.104116 -0.104116
-0.0838291 -0.0972582 -0.0972582
-0.0875639 -0.105778 -0.105778
-0.106613 -0.116627 -0.116627
-0.115272 -0.135463 -0.135463
-0.082244 -0.131883 -0.131883
-0.0760369 -0.113009 -0.113009
-0.110947 -0.125864 -0.125864
-0.0987242 -0.133518 -0.133518
-0.0791433 -0.122265 -0.122265
-0.0912913 -0.114662 -0.114662
-0.0950114 -0.123909 -0.123909
-0.115272 -0.135463 -0.135463
-0.123896 -0.155741 -0.155741
-0.0884288 -0.152201 -0.152201
-0.082244 -0.131883 -0.131883
-0.119588 -0.145422 -0.145422
-0.106128 -0.153816 -0.153816
-0.0853391 -0.141862 -0.141862
-0.0987242 -0.133518 -0.133518
-0.10243 -0.143487 -0.143487
-0.123896 -0.155741 -0.155741
-0.132484 -0.177454 -0.177454
-0.0945921 -0.173955 -0.173955
-0.0884288 -0.152201 -0.152201
-0.128194 -0.166419 -0.166419
-0.113504 -0.175551 -0.175551
-0.0915131 -0.162899 -0.162899
-0.106128 -0.153816 -0.153816
-0.10982 -0.164505 -0.164505
-0.132484 -0.177454 -0.177454
-0.141039 -0.200594 -0.200594
-0.100735 -0.197137 -0.197137
-0.0945921 -0.173955 -0.173955
-0.136766 -0.188846 -0.188846
-0.120852 -0.198713 -0.198713
-0.0976659 -0.185368 -0.185368
-0.113504 -0.175551 -0.175551
-0.117182 -0.186954 -0.186954
-0.141039 -0.200594 -0.200594
-0.14956 -0.225153 -0.225153
-0.106857 -0.221739 -0.221739
-0.100735 -0.197137 -0.197137
-0.145303 -0.212697 -0.212697
-0.128174 -0.223294 -0.223294
-0.103798 -0.209261 -0.209261
-0.120852 -0.198713 -0.198713
-0.124517 -0.210827 -0.210827
-0.14956 -0.225153 -0.225153
-0.158048 -0.251123 -0.251123
-0.11296 -0.247754 -0.247754
-0.106857 -0.221739 -0.221739
-0.153808 -0.237962 -0.237962
-0.13547 -0.249288 -0.249288
-0.109911 -0.234571 -0.234571
-0.128174 -0.223294 -0.223294
-0.131825 -0.236115 -0.236115
-0.158048 -0.251123 -0.251123
-0.166505 -0.278497 -0.278497
-0.119045 -0.275174 -0.275174
-0.11296 -0.247754 -0.247754
-0.16228 -0.264635 -0.264635
-0.14274 -0.276685 -0.276685
-0.116005 -0.261289 -0.261289
-0.13547 -0.249288 -0.249288
-0.139108 -0.262811 -0.262811
-0.166505 -0.278497 -0.278497
-0.17493 -0.307266 -0.307266
-0.125112 -0.30399 -0.30399
-0.119045 -0.275174 -0.275174
-0.170721 -0.292708 -0.292708
-0.149986 -0.305479 -0.305479
-0.122081 -0.289408 -0.289408
-0.14274 -0.276685 -0.276685
-0.146366 -0.290908 -0.290908
-0.17493 -0.307266 -0.307266
-0.183325 -0.337423 -0.337423
-0.131161 -0.334195 -0.334195
-0.125112 -0.30399 -0.30399
-0.179131 -0.322172 -0.322172
-0.157208 -0.335661 -0.335661
-0.128139 -0.318919 -0.318919
-0.149986 -0.305479 -0.305479
-0.1536 -0.320397 -0.320397
-0.183325 -0.337423 -0.337423
-0.191689 -0.36896 -0.36896
-0.137194 -0.365781 -0.365781
-0.131161 -0.334195 -0.334195
-0.187511 -0.35302 -0.35302
-0.164407 -0.367223 -0.367223
-0.13418 -0.349816 -0.349816
-0.157208 -0.335661 -0.335661
-0.160811 -0.35127 -0.35127
-0.191689 -0.36896 -0.36896
-0.200025 -0.40187 -0.40187
-0.143211 -0.398741 -0.398741
-0.137194 -0.365781 -0.365781
-0.195861 -0.385244 -0.385244
-0.171583 -0.400158 -0.400158
-0.140205 -0.38209 -0.38209
-0.164407 -0.367223 -0.367223
-0.167998 -0.38352 -0.38352
-0.200025 -0.40187 -0.40187
-0.208332 -0.436143 -0.436143
-0.149213 -0.433065 -0.433065
-0.143211 -0.398741 -0.398741
-0.204182 -0.418836 -0.418836
-0.178738 -0.434459 -0.434459
-0.146214 -0.415733 -0.415733
-0.171583 -0.400158 -0.400158
-0.175163 -0.417138 -0.417138
-0.208332 -0.436143 -0.436143
-0.216611 -0.471773 -0.471773
-0.1552 -0.468748 -0.468748
-0.149213 -0.433065 -0.433065
-0.212475 -0.453789 -0.453789
-0.185871 -0.470116 -0.470116
-0.152208 -0.450738 -0.450738
-0.178738 -0.434459 -0.434459
-0.182307 -0.452118 -0.452118
-0.216611 -0.471773 -0.471773
-0.224862 -0.508752 -0.508752
-0.161173 -0.50578 -0.50578
-0.1552 -0.468748 -0.468748
-0.22074 -0.490095 -0.490095
-0.192983 -0.507122 -0.507122
-0.158188 -0.487096 -0.487096
-0.185871 -0.470116 -0.470116
-0.189429 -0.488451 -0.488451
-0.224862 -0.508752 -0.508752
-0.233087 -0.547072 -0.547072
-0.167133 -0.544155 -0.544155
-0.161173 -0.50578 -0.50578
-0.228978 -0.527745 -0.527745
-0.200075 -0.54547 -0.54547
-0.164155 -0.5248 -0.5248
-0.192983 -0.507122 -0.507122
-0.196532 -0.526129 -0.526129
-0.233087 -0.547072 -0.547072
-0.241286 -0.586725 -0.586725
-0.17308 -0.583863 -0.583863
-0.167133 -0.544155 -0.544155
-0.23719 -0.566733 -0.566733
-0.207148 -0.585152 -0.585152
-0.170108 -0.563843 -0.563843
-0.200075 -0.54547 -0.54547
-0.203614 -0.565145 -0.565145
-0.241286 -0.586725 -0.586725
-0.249459 -0.627704 -0.627704
-0.179014 -0.624898 -0.624898
-0.17308 -0.583863 -0.583863
-0.245376 -0.60705 -0.60705
-0.214202 -0.62616 -0.62616
-0.176049 -0.604215 -0.604215
-0.207148 -0.585152 -0.585152
-0.210677 -0.605491 -0.605491
-0.249459 -0.627704 -0.627704
-0.257607 -0.67 -0.67
-0.184937 -0.667252 -0.667252
-0.179014 -0.624898 -0.624898
-0.253536 -0.648688 -0.648688
-0.221237 -0.668485 -0.668485
-0.181977 -0.645911 -0.645911
-0.214202 -0.62616 -0.62616
-0.217722 -0.647158 -0.647158
-0.257607 -0.67 -0.67
-0.26573 -0.713606 -0.713606
-0.190849 -0.710916 -0.710916
-0.184937 -0.667252 -0.667252
-0.261672 -0.69164 -0.69164
-0.228255 -0.712121 -0.712121
-0.187894 -0.68892 -0.68892
-0.221237 -0.668485 -0.668485
-0.224748 -0.69014 -0.69014
-0.26573 -0.713606 -0.713606
-0.27383 -0.758514 -0.758514
-0.19675 -0.755882 -0.755882
-0.190849 -0.710916 -0.710916
-0.269783 -0.735897 -0.735897
-0.235255 -0.757059 -0.757059
-0.193801 -0.733237 -0.733237
-0.228255 -0.712121 -0.712121
-0.231757 -0.734428 -0.734428
-0.27383 -0.758514 -0.758514
-0.281906 -0.804715 -0.804715
-0.202641 -0.802144 -0.802144
-0.19675 -0.755882 -0.755882
-0.277871 -0.781453 -0.781453
-0.242238 -0.803292 -0.803292
-0.199697 -0.778852 -0.778852
-0.235255 -0.757059 -0.757059
-0.238749 -0.780014 -0.780014
-0.281906 -0.804715 -0.804715
-0.289959 -0.852204 -0.852204
-0.208523 -0.849693 -0.849693
-0.202641 -0.802144 -0.802144
-0.285936 -0.828299 -0.828299
-0.249206 -0.850811 -0.850811
-0.205583 -0.825758 -0.825758
-0.242238 -0.803292 -0.803292
-0.245724 -0.826891 -0.826891
-0.289959 -0.852204 -0.852204
-0.29799 -0.90097 -0.90097
-0.214395 -0.898522 -0.898522
-0.208523 -0.849693 -0.849693
-0.293978 -0.876428 -0.876428
-0.256157 -0.89961 -0.89961
-0.21146 -0.873948 -0.873948
-0.249206 -0.850811 -0.850811
-0.252684 -0.875051 -0.875051
-0.29799 -0.90097 -0.90097
-0.305999 -0.951008 -0.951008
-0.220259 -0.948621 -0.948621
-0.214395 -0.898522 -0.898522
-0.301998 -0.92583 -0.92583
-0.263094 -0.949679 -0.949679
-0.217328 -0.923413 -0.923413
-0.256157 -0.89961 -0.89961
-0.259627 -0.924486 -0.924486
-0.305999 -0.951008 -0.951008
-0.313987 -1.00231 -1.00231
-0.226115 -0.999985 -0.999985
-0.220259 -0.948621 -0.948621
-0.309996 -0.9765 -0.9765
-0.270015 -1.00101 -1.00101
-0.223188 -0.974146 -0.974146
-0.263094 -0.949679 -0.949679
-0.266556 -0.975188 -0.975188
-0.313987 -1.00231 -1.00231
-0.321954 -1.05486 -1.05486
-0.231963 -1.0526 -1.0526
-0.226115 -0.999985 -0.999985
-0.317973 -1.02843 -1.02843
-0.276923 -1.0536 -1.0536
-0.22904 -1.02614 -1.02614
-0.270015 -1.00101 -1.00101
-0.273471 -1.02715 -1.02715
-0.321954 -1.05486 -1.05486
-0.3299 -1.10867 -1.10867
-0.237804 -1.10647 -1.10647
-0.231963 -1.0526 -1.0526
-0.325929 -1.08161 -1.08161
-0.283816 -1.10744 -1.10744
-0.234885 -1.07938 -1.07938
-0.276923 -1.0536 -1.0536
-0.280371 -1.08036 -1.08036
-0.3299 -1.10867 -1.10867
-0.337826 -1.16371 -1.16371
-0.243639 -1.16158 -1.16158
-0.237804 -1.10647 -1.10647
-0.333865 -1.13603 -1.13603
-0.290697 -1.16251 -1.16251
-0.240722 -1.13387 -1.13387
-0.283816 -1.10744 -1.10744
-0.287258 -1.13482 -1.13482
-0.337826 -1.16371 -1.16371
-0.345732 -1.21998 -1.21998
-0.249467 -1.21792 -1.21792
-0.243639 -1.16158 -1.16158
-0.341781 -1.19169 -1.19169
-0.297564 -1.21882 -1.21882
-0.246553 -1.1896 -1.1896
-0.290697 -1.16251 -1.16251
-0.294132 -1.19051 -1.19051
-0.345732 -1.21998 -1.21998
-0.35362 -1.27748 -1.27748
-0.255289 -1.27548 -1.27548
-0.249467 -1.21792 -1.21792
-0.349678 -1.24858 -1.24858
-0.304419 -1.27635 -1.27635
-0.252379 -1.24655 -1.24655
-0.297564 -1.21882 -1.21882
-0.300993 -1.24743 -1.24743
-0.35362 -1.27748 -1.27748
-0.361488 -1.33619 -1.33619
-0.261106 -1.33426 -1.33426
-0.255289 -1.27548 -1.27548
-0.357556 -1.30668 -1.30668
-0.311261 -1.3351 -1.3351
-0.258198 -1.30472 -1.30472
-0.304419 -1.27635 -1.27635
-0.307841 -1.30557 -1.30557
-0.361488 -1.33619 -1.33619
-0.369338 -1.39611 -1.39611
-0.266918 -1.39425 -1.39425
-0.261106 -1.33426 -1.33426
-0.365415 -1.366 -1.366
-0.318092 -1.39506 -1.39506
-0.264012 -1.36411 -1.36411
-0.311261 -1.3351 -1.3351
-0.314678 -1.36493 -1.36493
-0.369338 -1.39611 -1.39611
-0.37717 -1.45724 -1.45724
-0.272725 -1.45545 -1.45545
-0.266918 -1.39425 -1.39425
-0.373256 -1.42652 -1.42652
-0.324912 -1.45621 -1.45621
-0.269822 -1.4247 -1.4247
-0.318092 -1.39506 -1.39506
-0.321503 -1.42548 -1.42548
-0.37717 -1.45724 -1.45724
-0.384985 -1.51955 -1.51955
-0.278528 -1.51783 -1.51783
-0.272725 -1.45545 -1.45545
-0.38108 -1.48824 -1.48824
-0.33172 -1.51856 -1.51856
-0.275627 -1.48649 -1.48649
-0.324912 -1.45621 -1.45621
-0.328317 -1.48724 -1.48724
-0.384985 -1.51955 -1.51955
-0.392782 -1.58305 -1.58305
-0.284327 -1.5814 -1.5814
-0.278528 -1.51783 -1.51783
-0.388886 -1.55115 -1.55115
-0.338518 -1.5821 -1.5821
-0.281428 -1.54947 -1.54947
-0.33172 -1.51856 -1.51856
-0.335121 -1.55018 -1.55018
-0.392782 -1.58305 -1.58305
-0.400563 -1.64773 -1.64773
-0.290122 -1.64615 -1.64615
-0.284327 -1.5814 -1.5814
-0.396674 -1.61524 -1.61524
-0.345306 -1.64681 -1.64681
-0.287225 -1.61363 -1.61363
-0.338518 -1.5821 -1.5821
-0.341914 -1.61431 -1.61431
-0.400563 -1.64773 -1.64773
-0.408326 -1.71357 -1.71357
-0.295914 -1.71206 -1.71206
-0.290122 -1.64615 -1.64615
-0.404447 -1.6805 -1.6805
-0.352084 -1.71269 -1.71269
-0.293018 -1.67896 -1.67896
-0.345306 -1.64681 -1.64681
-0.348696 -1.67961 -1.67961
-0.408326 -1.71357 -1.71357
-0.416074 -1.78058 -1.78058
-0.301703 -1.77914 -1.77914
-0.295914 -1.71206 -1.71206
-0.412202 -1.74693 -1.74693
-0.358853 -1.77974 -1.77974
-0.298809 -1.74546 -1.74546
-0.352084 -1.71269 -1.71269
-0.35547 -1.74607 -1.74607
-0.416074 -1.78058 -1.78058
-0.423806 -1.84874 -1.84874
-0.30749 -1.84737 -1.84737
-0.301703 -1.77914 -1.77914
-0.419942 -1.81451 -1.81451
-0.365612 -1.84793 -1.84793
-0.304597 -1.81311 -1.81311
-0.358853 -1.77974 -1.77974
-0.362233 -1.81369 -1.81369
-0.423806 -1.84874 -1.84874
-0.431522 -1.91804 -1.91804
-0.313275 -1.91675 -1.91675
-0.30749 -1.84737 -1.84737
-0.427666 -1.88325 -1.88325
-0.372362 -1.91728 -1.91728
-0.310383 -1.88192 -1.88192
-0.365612 -1.84793 -1.84793
-0.368988 -1.88246 -1.88246
-0.431522 -1.91804 -1.91804
-0.439223 -1.98849 -1.98849
-0.319057 -1.98727 -1.98727
-0.313275 -1.91675 -1.91675
-0.435374 -1.95312 -1.95312
-0.379104 -1.98776 -1.98776
-0.316166 -1.95187 -1.95187
-0.372362 -1.91728 -1.91728
-0.375734 -1.95238 -1.95238
-0.439223 -1.98849 -1.98849
-0.446909 -2.06006 -2.06006
-0.324838 -2.05892 -2.05892
-0.319057 -1.98727 -1.98727
-0.443068 -2.02413 -2.02413
-0.385837 -2.05937 -2.05937
-0.321948 -2.02295 -2.02295
-0.379104 -1.98776 -1.98776
-0.382472 -2.02342 -2.02342
-0.446909 -2.06006 -2.06006
-0.45458 -2.13276 -2.13276
-0.330618 -2.13169 -2.13169
-0.324838 -2.05892 -2.05892
-0.450746 -2.09627 -2.09627
-0.392563 -2.1321 -2.1321
-0.327728 -2.09516 -2.09516
-0.385837 -2.05937 -2.05937
-0.389201 -2.0956 -2.0956
-0.45458 -2.13276 -2.13276
-0.462237 -2.20657 -2.20657
-0.336396 -2.20557 -2.20557
-0.330618 -2.13169 -2.13169
-0.45841 -2.16952 -2.16952
-0.39928 -2.20595 -2.20595
-0.333507 -2.16849 -2.16849
-0.392563 -2.1321 -2.1321
-0.395923 -2.16889 -2.16889
-0.462237 -2.20657 -2.20657
-0.46988 -2.28148 -2.28148
-0.342174 -2.28056 -2.28056
-0.336396 -2.20557 -2.20557
-0.46606 -2.24389 -2.24389
-0.405991 -2.28091 -2.28091
-0.339285 -2.24293 -2.24293
-0.39928 -2.20595 -2.20595
-0.402636 -2.24329 -2.24329
-0.46988 -2.28148 -2.28148
-0.477508 -2.3575 -2.3575
-0.347951 -2.35666 -2.35666
-0.342174 -2.28056 -2.28056
-0.473696 -2.31935 -2.31935
-0.412693 -2.35696 -2.35696
-0.345062 -2.31847 -2.31847
-0.405991 -2.28091 -2.28091
-0.409343 -2.3188 -2.3188
-0.477508 -2.3575 -2.3575
-0.485123 -2.4346 -2.4346
-0.353728 -2.43384 -2.43384
-0.347951 -2.35666 -2.35666
-0.481318 -2.39591 -2.39591
-0.419389 -2.43411 -2.43411
-0.350839 -2.39511 -2.39511
-0.412693 -2.35696 -2.35696
-0.416042 -2.3954 -2.3954
-0.485123 -2.4346 -2.4346
-0.492725 -2.51279 -2.51279
-0.359504 -2.5121 -2.5121
-0.353728 -2.43384 -2.43384
-0.488926 -2.47356 -2.47356
-0.426078 -2.51233 -2.51233
-0.356616 -2.47284 -2.47284
-0.419389 -2.43411 -2.43411
-0.422735 -2.47308 -2.47308
-0.492725 -2.51279 -2.51279
-0.500313 -2.59206 -2.59206
-0.365281 -2.59145 -2.59145
-0.359504 -2.5121 -2.5121
-0.496521 -2.55229 -2.55229
-0.432761 -2.59164 -2.59164
-0.362393 -2.55164 -2.55164
-0.426078 -2.51233 -2.51233
-0.42942 -2.55185 -2.55185
-0.500313 -2.59206 -2.59206
-0.507889 -2.67239 -2.67239
-0.371058 -2.67185 -2.67185
-0.365281 -2.59145 -2.59145
-0.504103 -2.63209 -2.63209
-0.439437 -2.67201 -2.67201
-0.368169 -2.63152 -2.63152
-0.432761 -2.59164 -2.59164
-0.4361 -2.63169 -2.63169
-0.507889 -2.67239 -2.67239
-0.515451 -2.75378 -2.75378
-0.376836 -2.75332 -2.75332
-0.371058 -2.67185 -2.67185
-0.511672 -2.71295 -2.71295
-0.446107 -2.75344 -2.75344
-0.373947 -2.71246 -2.71246
-0.439437 -2.67201 -2.67201
-0.442773 -2.71259 -2.71259
-0.515451 -2.75378 -2.75378
-0.523001 -2.83623 -2.83623
-0.382614 -2.83585 -2.83585
-0.376836 -2.75332 -2.75332
-0.519228 -2.79487 -2.79487
-0.452771 -2.83592 -2.83592
-0.379725 -2.79445 -2.79445
-0.446107 -2.75344 -2.75344
-0.44944 -2.79455 -2.79455
-0.523001 -2.83623 -2.83623
-0.530539 -2.91971 -2.91971
-0.388393 -2.91941 -2.91941
-0.382614 -2.83585 -2.83585
-0.526772 -2.87784 -2.87784
-0.459429 -2.91945 -2.91945
-0.385503 -2.8775 -2.8775
-0.452771 -2.83592 -2.83592
-0.456101 -2.87756 -2.87756
-0.530539 -2.91971 -2.91971
-0.538064 -3.00424 -3.00424
-0.394173 -3.00401 -3.00401
-0.388393 -2.91941 -2.91941
-0.534303 -2.96185 -2.96185
-0.466082 -3.00402 -3.00402
-0.391283 -2.96158 -2.96158
-0.459429 -2.91945 -2.91945
-0.462756 -2.9616 -2.9616
-0.538064 -3.00424 -3.00424
-0.545577 -3.08979 -3.08979
-0.399954 -3.08964 -3.08964
-0.394173 -3.00401 -3.00401
-0.541822 -3.04689 -3.04689
-0.472729 -3.08961 -3.08961
-0.397063 -3.0467 -3.0467
-0.466082 -3.00402 -3.00402
-0.469406 -3.04668 -3.04668
-0.545577 -3.08979 -3.08979
-0.553078 -3.17636 -3.17636
-0.405737 -3.1763 -3.1763
-0.399954 -3.08964 -3.08964
-0.549329 -3.13295 -3.13295
-0.479371 -3.17622 -3.17622
-0.402846 -3.13284 -3.13284
-0.472729 -3.08961 -3.08961
-0.476051 -3.13279 -3.13279
-0.553078 -3.17636 -3.17636
-0.560567 -3.26395 -3.26395
-0.411521 -3.26396 -3.26396
-0.405737 -3.1763 -3.1763
-0.556824 -3.22003 -3.22003
-0.486008 -3.26385 -3.26385
-0.408629 -3.22 -3.22
-0.479371 -3.17622 -3.17622
-0.48269 -3.21991 -3.21991
-0.560567 -3.26395 -3.26395
-0.568045 -3.35254 -3.35254
-0.417307 -3.35263 -3.35263
-0.411521 -3.26396 -3.26396
-0.564308 -3.30812 -3.30812
-0.49264 -3.35248 -3.35248
-0.414414 -3.30817 -3.30817
-0.486008 -3.26385 -3.26385
-0.489324 -3.30804 -3.30804
-0.568045 -3.35254 -3.35254
-0.575511 -3.44213 -3.44213
-0.423095 -3.4423 -3.4423
-0.417307 -3.35263 -3.35263
-0.57178 -3.39721 -3.39721
-0.499266 -3.44211 -3.44211
-0.420201 -3.39734 -3.39734
-0.49264 -3.35248 -3.35248
-0.495954 -3.39717 -3.39717
-0.575511 -3.44213 -3.44213
-0.582966 -3.5327 -3.5327
-0.428884 -3.53295 -3.53295
-0.423095 -3.4423 -3.4423
-0.57924 -3.48729 -3.48729
-0.505889 -3.53272 -3.53272
-0.425989 -3.4875 -3.4875
-0.499266 -3.44211 -3.44211
-0.502578 -3.48729 -3.48729
-0.582966 -3.5327 -3.5327
-0.590409 -3.62426 -3.62426
-0.434676 -3.62459 -3.62459
-0.428884 -3.53295 -3.53295
-0.586689 -3.57836 -3.57836
-0.512506 -3.62432 -3.62432
-0.43178 -3.57865 -3.57865
-0.505889 -3.53272 -3.53272
-0.509198 -3.5784 -3.5784
-0.590409 -3.62426 -3.62426
-0.597841 -3.71679 -3.71679
-0.440469 -3.7172 -3.7172
-0.434676 -3.62459 -3.62459
-0.594126 -3.6704 -3.6704
-0.519119 -3.7169 -3.7169
-0.437572 -3.67078 -3.67078
-0.512506 -3.62432 -3.62432
-0.515813 -3.67049 -3.67049
-0.597841 -3.71679 -3.71679
-0.605262 -3.81029 -3.81029
-0.446265 -3.81078 -3.81078
-0.440469 -3.7172 -3.7172
-0.601553 -3.76342 -3.76342
-0.525727 -3.81043 -3.81043
-0.443367 -3.76387 -3.76387
-0.519119 -3.7169 -3.7169
-0.522423 -3.76354 -3.76354
-0.605262 -3.81029 -3.81029
-0.612671 -3.90474 -3.90474
-0.452063 -3.90532 -3.90532
-0.446265 -3.81078 -3.81078
-0.608968 -3.8574 -3.8574
-0.532331 -3.90493 -3.90493
-0.449164 -3.85793 -3.85793
-0.525727 -3.81043 -3.81043
-0.529029 -3.85756 -3.85756
-0.612671 -3.90474 -3.90474