<?xml version="1.0"?>
<VTKFile type="UnstructuredGrid">
  <UnstructuredGrid>
  <Piece NumberOfPoints="836"  NumberOfCells="392">
    <Points>
      <DataArray type="Float64" NumberOfComponents="3" format="ascii">
1.09813 1.01995 0.1
0.500651 0.510321 0.1
1.49945 0.510321 0.1
1.49947 1.52945 0.1
0.500633 1.52945 0.1
1.09332 1.0526 0.1
1.07939 1.0821 0.1
1.05768 1.10552 0.1
1.03035 1.12058 0.1
1.00004 1.12577 0.1
0.969771 1.12058 0.1
0.942418 1.10552 0.1
0.920718 1.0821 0.1
0.906777 1.0526 0.1
0.901973 1.01995 0.1
0.906774 0.987272 0.1
0.92071 0.95781 0.1
0.942425 0.934377 0.1
0.969758 0.919324 0.1
1.00006 0.914135 0.1
1.03034 0.919323 0.1
1.05768 0.934373 0.1
1.07939 0.957802 0.1
1.09333 0.987277 0.1
1.09693 1.03647 0.1
1.08743 1.06794 0.1
1.06939 1.09472 0.1
1.04456 1.11421 0.1
1.01539 1.12446 0.1
0.984718 1.12447 0.1
0.95554 1.1142 0.1
0.930712 1.09472 0.1
0.91267 1.06793 0.1
0.903173 1.03647 0.1
0.903177 1.00341 0.1
0.912654 0.97196 0.1
0.930706 0.945177 0.1
0.955542 0.92569 0.1
0.984717 0.915446 0.1
1.01539 0.915441 0.1
1.04457 0.925693 0.1
1.06939 0.945169 0.1
1.08744 0.971956 0.1
1.09692 1.00341 0.1
0.625472 0.510196 0.1
0.750296 0.50999 0.1
0.875147 0.509806 0.1
1.00005 0.509745 0.1
1.12495 0.509807 0.1
1.24981 0.509992 0.1
1.37463 0.510197 0.1
0.563061 0.510269 0.1
0.687884 0.510103 0.1
0.812715 0.509882 0.1
0.937593 0.50976 0.1
1.06251 0.509761 0.1
1.18739 0.509884 0.1
1.31222 0.510104 0.1
1.43704 0.510269 0.1
1.49933 0.637703 0.1
1.49914 0.765101 0.1
1.49898 0.8925 0.1
1.49893 1.01988 0.1
1.49898 1.14727 0.1
1.49914 1.27467 0.1
1.49933 1.40207 0.1
1.4994 0.57401 0.1
1.49924 0.7014 0.1
1.49905 0.828803 0.1
1.49894 0.956194 0.1
1.49894 1.08357 0.1
1.49904 1.21096 0.1
1.49924 1.33837 0.1
1.4994 1.46576 0.1
1.37464 1.52966 0.1
1.24981 1.52994 0.1
1.12496 1.53016 0.1
1.00005 1.53024 0.1
0.875144 1.53016 0.1
0.750288 1.52993 0.1
0.625459 1.52966 0.1
1.43706 1.52955 0.1
1.31223 1.52979 0.1
1.18739 1.53007 0.1
1.06251 1.53022 0.1
0.937591 1.53022 0.1
0.81271 1.53007 0.1
0.687874 1.52979 0.1
0.563046 1.52955 0.1
0.500773 1.40207 0.1
0.500964 1.27467 0.1
0.501125 1.14727 0.1
0.501177 1.01988 0.1
0.50112 0.892501 0.1
0.500959 0.765102 0.1
0.500774 0.637703 0.1
0.500697 1.46576 0.1
0.500862 1.33837 0.1
0.501058 1.21096 0.1
0.501165 1.08357 0.1
0.501162 0.956194 0.1
0.501053 0.828803 0.1
0.500859 0.7014 0.1
0.500705 0.57401 0.1
1.24694 0.765811 0.1
1.23415 1.25756 0.1
0.776268 1.25596 0.1
0.769517 0.790879 0.1
1.04755 0.712833 0.1
0.691988 0.976881 0.1
0.957874 1.33646 0.1
1.29889 0.971445 0.1
1.21342 1.1316 0.1
0.890212 0.800264 0.1
0.785587 1.14087 0.1
1.11923 1.24326 0.1
1.16445 0.850841 0.1
0.901307 1.22575 0.1
0.800651 0.918775 0.1
1.03143 0.815809 0.1
1.19683 0.987816 0.1
0.827077 1.05419 0.1
1.12964 1.15379 0.1
1.03408 1.20137 0.1
0.879028 0.894689 0.1
0.878149 1.14485 0.1
1.14531 0.943208 0.1
1.07445 0.868579 0.1
0.97437 0.851875 0.1
1.16083 1.04634 0.1
1.34515 1.10876 0.1
0.657291 1.10562 0.1
1.08404 1.37147 0.1
0.912979 0.666102 0.1
0.979917 1.18671 0.1
1.07088 1.16433 0.1
0.840864 0.999127 0.1
0.842778 1.40268 0.1
0.626215 0.85941 0.1
1.37138 0.855527 0.1
1.15757 0.64454 0.1
1.11659 0.801728 0.1
1.21242 0.900048 0.1
0.866676 1.09065 0.1
1.15053 0.995178 0.1
1.10521 0.910384 0.1
1.02409 0.86215 0.1
1.13741 1.08361 0.1
0.929564 0.879109 0.1
1.23832 1.07014 0.1
0.950782 0.774144 0.1
0.674316 1.40273 0.1
0.625318 0.687314 0.1
1.34139 0.628646 0.1
1.3525 1.37988 0.1
0.709637 1.05003 0.1
1.02955 1.31864 0.1
0.937038 1.14975 0.1
0.876458 0.954595 0.1
1.38963 1.24715 0.1
1.22575 1.41915 0.1
0.616153 1.25247 0.1
0.772224 0.627353 0.1
0.835919 0.853221 0.1
0.837751 1.1881 0.1
0.716196 0.858189 0.1
0.841764 1.311 0.1
1.1771 1.21615 0.1
0.971478 1.25473 0.1
0.77289 0.990734 0.1
1.09849 1.11996 0.1
1.302 1.18979 0.1
1.17213 1.33753 0.1
0.832036 0.711237 0.1
0.699263 1.19193 0.1
0.87064 1.0421 0.1
1.02186 1.16072 0.1
1.34385 0.740176 0.1
1.07283 0.589306 0.1
0.933595 1.43368 0.1
0.596121 0.952124 0.1
1.42164 0.945019 0.1
1.23066 0.834689 0.1
1.17992 0.784758 0.1
1.2846 0.894873 0.1
1.12158 0.729339 0.1
0.906155 1.10836 0.1
0.912927 0.921504 0.1
0.595227 1.34724 0.1
0.679397 0.606395 0.1
0.901828 0.735799 0.1
1.27709 1.11932 0.1
1.29877 1.05107 0.1
0.969361 0.712976 0.1
1.1142 0.958897 0.1
1.05853 0.89949 0.1
0.979973 0.887081 0.1
1.1248 1.04007 0.1
1.18415 1.08087 0.1
0.936085 0.827075 0.1
0.641566 1.02902 0.1
1.00898 1.38764 0.1
0.686216 1.30105 0.1
0.724971 0.699017 0.1
1.39444 1.0319 0.1
0.988282 0.615872 0.1
1.42294 0.688146 0.1
0.906553 1.28555 0.1
0.74184 0.924399 0.1
1.15214 0.902334 0.1
0.832373 1.1232 0.1
0.758062 1.35501 0.1
0.672461 0.772734 0.1
1.25444 0.68454 0.1
1.11453 0.859741 0.1
1.05614 1.13497 0.1
0.980829 1.14942 0.1
0.87785 0.999582 0.1
1.10404 1.29733 0.1
0.732573 1.1261 0.1
1.27173 1.35228 0.1
1.06768 0.776256 0.1
1.23901 0.953006 0.1
1.30114 1.44681 0.1
1.4174 1.32645 0.1
0.587357 0.597496 0.1
0.586231 1.44118 0.1
0.759723 1.43905 0.1
0.590114 0.774623 0.1
1.24038 0.600854 0.1
1.29549 0.818239 0.1
0.837948 0.779736 0.1
0.766465 1.18867 0.1
0.891501 1.35612 0.1
0.67226 0.909124 0.1
1.05073 1.45871 0.1
0.57152 1.07158 0.1
1.10955 1.19911 0.1
0.894109 0.850885 0.1
1.41513 1.4436 0.1
1.40856 1.16688 0.1
1.14655 1.44579 0.1
0.585523 1.16994 0.1
0.855158 0.602663 0.1
0.893681 1.07586 0.1
0.937166 1.19591 0.1
0.830777 0.955362 0.1
1.07393 0.824606 0.1
1.18871 0.944223 0.1
0.77677 1.0808 0.1
1.06138 1.25251 0.1
1.31829 1.28796 0.1
1.16115 1.26817 0.1
1.17701 1.16461 0.1
1.08345 0.931813 0.1
1.23524 1.18256 0.1
1.11718 1.0003 0.1
1.01876 0.895292 0.1
1.1062 1.07703 0.1
1.20227 1.03203 0.1
0.988227 0.81021 0.1
1.19212 0.721797 0.1
0.946521 0.907975 0.1
1.419 0.781151 0.1
0.899639 1.1796 0.1
0.845827 0.916725 0.1
1.1556 1.12217 0.1
1.00918 0.766991 0.1
1.24564 1.01092 0.1
1.43491 0.57607 0.1
0.775009 0.870341 0.1
0.853898 1.25107 0.1
1.07758 0.658342 0.1
1.35416 0.939775 0.1
1.29089 0.614748 0.1
1.3075 0.555549 0.1
1.35802 0.569421 0.1
0.717015 1.4209 0.1
0.692599 1.48434 0.1
0.649884 1.46619 0.1
0.607715 0.730977 0.1
0.545434 0.706163 0.1
0.563051 0.66252 0.1
0.731246 1.27848 0.1
0.692721 1.2465 0.1
0.737775 1.22392 0.1
0.747232 0.744946 0.1
0.778507 0.705153 0.1
0.800753 0.751038 0.1
0.806996 1.222 0.1
0.845797 1.21961 0.1
0.815086 1.25349 0.1
0.802708 0.822077 0.1
0.80548 0.861815 0.1
0.772242 0.830598 0.1
0.862438 0.905726 0.1
0.840838 0.884955 0.1
0.857456 0.873989 0.1
0.888875 1.16224 0.1
0.868699 1.1838 0.1
0.85793 1.16644 0.1
1.05252 1.18292 0.1
1.09022 1.18167 0.1
1.07184 1.20028 0.1
0.891623 0.97095 0.1
0.898543 0.956381 0.1
0.953359 1.13512 0.1
0.939603 1.12758 0.1
0.846924 1.07236 0.1
0.849502 1.10691 0.1
0.829759 1.0887 0.1
0.884068 0.634397 0.1
0.921706 0.60924 0.1
0.950626 0.640964 0.1
1.36978 1.07032 0.1
1.40148 1.09939 0.1
1.37686 1.13782 0.1
0.800033 1.02241 0.1
0.806858 0.99494 0.1
0.834029 1.02668 0.1
1.00279 1.22811 0.1
0.975692 1.22067 0.1
1.00699 1.19413 0.1
0.931707 0.562872 0.1
0.865147 0.556244 0.1
1.45376 1.15707 0.1
1.44672 1.08959 0.1
1.13948 0.855326 0.1
1.11559 0.830723 0.1
1.14054 0.826263 0.1
1.15332 1.15917 0.1
1.14328 1.18184 0.1
1.11962 1.17648 0.1
1.24509 0.555419 0.1
0.755006 1.4845 0.1
0.545538 0.769868 0.1
1.04773 1.2269 0.1
1.01644 1.25374 0.1
0.801908 1.0675 0.1
0.774913 1.03576 0.1
1.089 1.10096 0.1
1.07815 1.11261 0.1
1.18842 0.875465 0.1
1.18227 0.901236 0.1
1.15832 0.876577 0.1
1.1144 1.22118 0.1
1.14332 1.20758 0.1
1.14817 1.2297 0.1
0.545643 0.833579 0.1
0.60816 0.81701 0.1
0.563677 0.87597 0.1
0.817414 1.48463 0.1
0.801249 1.42086 0.1
0.858952 1.46641 0.1
1.18269 0.555309 0.1
1.19898 0.622708 0.1
1.14127 0.577179 0.1
1.17707 1.19039 0.1
0.835035 1.15567 0.1
0.85528 1.13398 0.1
1.16701 0.943749 0.1
1.16963 0.969673 0.1
1.14788 0.969185 0.1
0.745605 0.864278 0.1
0.74286 0.824544 0.1
0.847823 1.28104 0.1
0.809001 1.28349 0.1
1.04929 0.8653 0.1
1.04901 0.843408 0.1
1.07421 0.846592 0.1
0.888721 1.04722 0.1
0.886343 1.0311 0.1
1.02622 1.14064 0.1
1.01091 1.14325 0.1
0.994166 0.562831 0.1
1.44669 1.02589 0.1
1.25295 1.30492 0.1
1.22193 1.34489 0.1
1.20316 1.29756 0.1
0.657699 1.2222 0.1
0.65119 1.27675 0.1
0.80213 0.669312 0.1
0.748588 0.663176 0.1
0.818286 0.886004 0.1
0.823247 0.917779 0.1
0.869509 1.20693 0.1
0.900454 1.20268 0.1
1.15562 1.02078 0.1
1.17638 1.01366 0.1
1.18155 1.03917 0.1
1.35527 1.17832 0.1
1.32355 1.14926 0.1
0.678299 1.14876 0.1
0.642407 1.18091 0.1
0.621396 1.13778 0.1
1.1281 1.35453 0.1
1.15935 1.39167 0.1
1.1153 1.40861 0.1
0.872491 0.68864 0.1
0.843585 0.656934 0.1
0.98129 0.831048 0.1
1.00618 0.836164 0.1
0.999234 0.856914 0.1
1.0855 1.22588 0.1
0.804619 1.10195 0.1
0.611184 0.905769 0.1
0.54861 0.92232 0.1
0.888178 1.4182 0.1
0.904368 1.48189 0.1
1.11521 0.6169 0.1
1.09889 0.549576 0.1
1.46032 0.918763 0.1
1.39649 0.900285 0.1
1.43517 0.87403 0.1
1.03294 0.637075 0.1
1.06257 0.685598 0.1
1.01792 0.664349 0.1
1.32653 0.955609 0.1
1.37428 0.985849 0.1
1.34666 1.00169 0.1
0.865016 0.852088 0.1
0.88654 0.872759 0.1
0.801867 0.973096 0.1
0.835839 0.977231 0.1
0.954297 1.22536 0.1
0.958538 1.19134 0.1
1.19755 0.8428 0.1
1.22156 0.86736 0.1
1.3952 0.818341 0.1
1.45897 0.836839 0.1
0.894725 0.93807 0.1
0.91679 0.939665 0.1
0.92157 1.12913 0.1
0.924259 1.10687 0.1
0.964675 1.29556 0.1
1.00051 1.2867 0.1
0.99371 1.32759 0.1
0.732421 0.98381 0.1
0.741279 1.0204 0.1
0.700838 1.01345 0.1
1.34582 1.21847 0.1
1.39909 1.20702 0.1
1.18615 1.43248 0.1
1.19894 1.37833 0.1
0.600846 1.2112 0.1
0.813684 0.614998 0.1
0.803733 0.785325 0.1
0.836903 0.816456 0.1
0.771353 1.22232 0.1
0.802123 1.18835 0.1
0.799916 1.33298 0.1
0.767148 1.30549 0.1
0.694312 0.815456 0.1
0.720998 0.781834 0.1
1.09425 0.842135 0.1
1.09526 0.813189 0.1
0.975217 1.13501 0.1
0.958944 1.14965 0.1
0.892325 0.993537 0.1
0.877201 0.977045 0.1
1.17369 0.991506 0.1
1.19275 0.966024 0.1
0.675598 1.03952 0.1
0.666787 1.00296 0.1
1.01926 1.35313 0.1
0.983426 1.36206 0.1
1.05269 0.820173 0.1
1.02777 0.83901 0.1
1.14825 0.793272 0.1
1.17221 0.817791 0.1
1.2507 0.725168 0.1
[...]
    <PointData>
      <DataArray type="Float64" NumberOfComponents="2" Name="Displacement" format="ascii">
-0.00187096 0.0199465
0.000150753 0.00982083
-4.76768e-05 0.00982077
-3.12037e-05 0.0299543
0.000133151 0.0299537
-0.00178223 0.0217
-0.00151477 0.0233221
-0.00110314 0.024619
-0.000555465 0.0254761
4.26269e-05 0.0257738
0.000672569 0.0254769
0.00119666 0.0246224
0.0016193 0.023323
0.00188282 0.0216941
0.00197345 0.0199477
0.00188 0.0181739
0.00161166 0.0165886
0.00120317 0.0152791
0.000659775 0.0144296
5.65246e-05 0.0141352
-0.000562719 0.0144291
-0.00109355 0.0152744
-0.00151184 0.0165805
-0.00177764 0.0181782
-0.00184257 0.0208303
-0.00166688 0.022538
-0.00131628 0.0240088
-0.000840766 0.0251114
-0.000258169 0.0256896
0.000361694 0.025698
0.000939125 0.0251042
0.00142227 0.0240126
0.00177085 0.0225351
0.00194232 0.0208286
0.00194595 0.0190533
0.00175482 0.0173586
0.00141653 0.0158876
0.000941209 0.0147907
0.000360414 0.0142145
-0.000256986 0.01421
-0.000833822 0.0147939
-0.00131745 0.01588
-0.00165676 0.0173553
-0.00184403 0.0190537
9.71799e-05 0.00969592
4.59774e-05 0.0094899
2.22708e-05 0.00930561
5.0985e-05 0.00924509
7.99253e-05 0.00930744
5.68969e-05 0.00949173
6.19842e-06 0.00969683
0.00012367 0.00976851
7.12822e-05 0.00960305
2.75715e-05 0.00938228
3.00753e-05 0.00925988
7.19512e-05 0.00926102
7.49072e-05 0.00938434
3.19448e-05 0.00960442
-2.03421e-05 0.00976894
-0.000171074 0.0123277
-0.000356047 0.0148514
-0.000518332 0.0173752
-0.000574336 0.0198827
-0.000522715 0.022391
-0.000362123 0.0249174
-0.000171696 0.0274443
-0.000101678 0.0110721
-0.000255864 0.0135875
-0.000450475 0.0161153
-0.000559619 0.018631
-0.000562147 0.0211346
-0.00045604 0.023652
-0.000260668 0.026183
-9.52078e-05 0.0287014
1.70418e-05 0.0301614
6.34655e-05 0.030435
8.31378e-05 0.0306645
5.13277e-05 0.0307402
1.93093e-05 0.0306627
3.83566e-05 0.0304327
8.43934e-05 0.0301596
-6.85323e-06 0.0300495
4.04814e-05 0.0302899
7.9737e-05 0.030569
7.36681e-05 0.0307216
2.89353e-05 0.0307205
2.24497e-05 0.0305667
6.10349e-05 0.0302877
0.000108432 0.0300482
0.000273288 0.0274427
0.000464139 0.0249165
0.000625199 0.0223913
0.000676608 0.0198835
0.000620432 0.017376
0.000458739 0.0148518
0.00027435 0.0123278
0.00019688 0.0287001
0.000362375 0.0261815
0.000558375 0.0236517
0.00066461 0.0211352
0.00066171 0.0186318
0.000552775 0.016116
0.000358945 0.0135876
0.000204952 0.0110722
-0.000191351 0.0144622
-0.000218146 0.0251236
0.000307411 0.0251383
0.000334774 0.0149182
7.66182e-05 0.0125833
0.000950748 0.0190359
2.94097e-05 0.0274971
-0.000861487 0.0189209
-0.00075036 0.0224703
0.000107765 0.0143011
0.000797347 0.0226754
-1.90006e-05 0.0255866
-0.000326549 0.015796
0.000114108 0.0254739
0.000922156 0.0175823
6.13104e-05 0.01387
-0.0012323 0.0191858
0.00144338 0.0207986
-0.000460653 0.023688
4.4861e-05 0.0258102
0.000611031 0.016272
0.000620053 0.0236005
-0.00107351 0.0177958
-0.000132812 0.0149646
7.15275e-05 0.014145
-0.00144402 0.0206401
-0.0007029 0.0217174
0.000814942 0.0216552
8.12442e-05 0.0279513
1.96941e-05 0.011953
6.62176e-05 0.0257962
-0.000162559 0.0249053
0.00157675 0.0193849
3.84611e-05 0.0282699
0.000622691 0.0166697
-0.00051367 0.0165855
6.35183e-05 0.0117888
-2.15816e-05 0.0143849
-0.000697208 0.0172109
0.00126847 0.022071
-0.0015129 0.0192464
-0.000631144 0.0163375
1.86387e-05 0.0141914
-0.00123994 0.0218278
0.000288446 0.0150409
-0.00101646 0.0210241
2.85505e-05 0.0134628
0.000177029 0.0277673
0.00027769 0.0131755
-7.57441e-05 0.0119591
-0.000123755 0.0272536
0.00101516 0.0205476
6.9427e-05 0.0272606
0.000356116 0.0248781
0.00135104 0.0178157
-0.000384353 0.0244935
2.35108e-05 0.0283664
0.000472763 0.0246149
8.35889e-05 0.0116734
0.000441277 0.0158473
0.000432119 0.0240889
0.000623232 0.0165178
9.27983e-05 0.026573
-0.000239718 0.024575
3.4069e-05 0.0264022
0.00121703 0.01929
-0.000749779 0.0234975
-0.000503202 0.0234665
1.65008e-05 0.0270051
8.58721e-05 0.0130512
0.000598291 0.0235148
0.00175941 0.0206759
-2.46963e-05 0.0256592
-0.000244186 0.0141901
7.93187e-05 0.0106352
2.40254e-05 0.0290383
0.000760238 0.0185527
-0.000629671 0.0184081
-0.000383965 0.0158454
-0.000118987 0.0145315
-0.000654926 0.0172973
5.33207e-05 0.0131538
0.00103399 0.0233554
0.000854496 0.0161361
0.000311002 0.0264969
0.000140912 0.0114789
3.46165e-05 0.0131426
-0.000759104 0.0220217
-0.000889722 0.020565
3.37016e-05 0.0125495
-0.00133318 0.017763
-0.000338234 0.0150208
0.000153623 0.0142485
-0.00169895 0.0206424
-0.0011304 0.0214122
7.42401e-05 0.0142623
0.000874183 0.0200937
5.72926e-05 0.0283344
0.000322724 0.0257536
0.000204566 0.0132029
-0.000709689 0.0201416
4.52913e-05 0.0110227
-0.000207181 0.0132552
3.93409e-05 0.0264977
0.000896814 0.0178847
-0.000659182 0.0168504
0.000909363 0.022545
0.000150521 0.0270693
0.000403672 0.0148257
-5.83096e-05 0.0128524
-0.000220142 0.0154395
-0.000407026 0.0248866
0.000166263 0.0256582
0.001809 0.0192152
5.90051e-05 0.0266296
0.000845276 0.0221857
-8.56173e-05 0.026913
7.02331e-05 0.013595
-0.000948946 0.0184734
-1.17187e-05 0.0287017
-0.000249192 0.0260552
0.000189203 0.0114525
0.000187695 0.0283488
7.71346e-05 0.0287153
0.000452544 0.0149771
2.54324e-05 0.0111919
-0.00039509 0.0157003
0.00017559 0.0143226
0.000563688 0.0236566
2.69332e-05 0.0276076
0.000769549 0.0176495
7.26522e-05 0.0294852
0.000744944 0.020925
-0.000117067 0.0248816
0.000251452 0.0151581
-8.4172e-05 0.0283939
-0.000540647 0.0228413
7.666e-05 0.0290879
0.000636287 0.0229034
2.6144e-05 0.0110014
0.0015417 0.0221494
0.000106177 0.0254422
0.00124561 0.0183019
1.81486e-05 0.0143329
-0.00101171 0.0181303
0.00111817 0.0212893
6.48529e-05 0.0261988
-0.000251111 0.0254726
-5.79728e-05 0.0257386
-0.000505042 0.0234412
-0.000937968 0.0162204
-0.000490422 0.0235151
-0.00174299 0.0191932
-8.82634e-05 0.0142477
-0.00142173 0.0221893
-0.00125812 0.0202135
4.47441e-05 0.0137388
-2.5322e-05 0.0133567
0.000547615 0.0149728
-0.000365088 0.0151161
0.000282004 0.0246479
0.000898005 0.0172193
-0.000810603 0.022629
5.77246e-05 0.0132532
-0.00107418 0.0197362
-7.46108e-05 0.0110551
0.000641429 0.0166003
0.00016432 0.0255135
7.9935e-05 0.0118006
-0.00070409 0.0182921
-2.16716e-05 0.0115741
9.96314e-06 0.0104683
-2.89664e-05 0.0108278
0.000122333 0.0282467
8.79193e-05 0.029418
0.000127384 0.0289631
0.00036442 0.0140841
0.000353147 0.0136525
0.000280917 0.0127631
0.000318616 0.0254249
0.000441554 0.0246446
0.000462859 0.0243047
0.000257082 0.0140592
0.00014833 0.0131534
0.00018646 0.013965
0.000356133 0.0245911
0.000271083 0.0248253
0.000239433 0.0252967
0.00037752 0.0154098
0.000556958 0.016257
0.000466575 0.0157471
0.000765483 0.0167647
0.000634853 0.0165151
0.000509117 0.016094
0.000431789 0.0241471
0.000361311 0.0243175
0.000506224 0.0238152
-2.18836e-05 0.0254262
-0.000132059 0.0248446
-1.2499e-05 0.0253872
0.00162181 0.018011
0.0014403 0.0173807
0.000469214 0.025129
0.000650991 0.0246948
0.00140286 0.0213741
0.00106647 0.0222969
0.00121079 0.0216763
2.20326e-05 0.0114908
2.19554e-05 0.0109844
2.83922e-05 0.0114646
-0.000724462 0.0209218
-0.000648761 0.0214914
-0.000614104 0.0222825
0.00137971 0.019994
0.00137855 0.0193466
0.00156907 0.020114
5.22255e-05 0.0261721
4.47058e-05 0.0260485
4.84445e-05 0.0258917
2.66096e-05 0.0101972
1.84728e-05 0.0101625
-0.000534694 0.022607
-0.000609825 0.0212696
-0.000278207 0.0156531
-9.57453e-05 0.0149005
-0.000150086 0.0150688
-0.000487774 0.0235305
-0.000309023 0.0241403
-0.000263962 0.024311
4.17945e-05 0.0103381
5.76395e-05 0.0295774
0.000456856 0.0149194
5.87019e-05 0.0259701
6.30061e-05 0.0264244
0.00126533 0.0210458
0.00125104 0.020282
-0.00107264 0.0233412
-0.000857089 0.023933
-0.000522271 0.0165235
-0.000689597 0.0170756
-0.000467857 0.0163128
-5.97682e-05 0.0252322
-0.000184953 0.0246768
-0.000120859 0.0250785
0.000562221 0.0161936
0.000532479 0.0158174
0.00063106 0.0170373
2.81101e-05 0.0297125
5.63106e-05 0.0284851
1.9833e-05 0.0294584
7.22947e-05 0.0102277
4.57102e-05 0.0115019
8.13165e-05 0.0105537
-0.000354501 0.0240193
0.000644261 0.0233358
0.000784257 0.0230322
-0.00104707 0.0179958
-0.00125258 0.0186611
-0.00133319 0.0185133
0.000634675 0.0165721
0.000482291 0.0157283
0.000121291 0.0260435
0.000185345 0.0258658
-4.14324e-05 0.0145133
2.02891e-05 0.0142922
-3.60078e-05 0.0146482
0.00183385 0.0210544
0.00190289 0.0203919
-0.000177884 0.025559
-3.71759e-05 0.025725
4.76843e-05 0.0101563
-0.000634915 0.0200109
-0.000139134 0.0260218
-3.70803e-05 0.0269389
-7.80975e-05 0.0260837
0.000526454 0.0240631
0.000403289 0.0251735
8.51959e-05 0.0123791
0.000134225 0.0124292
0.000682914 0.0167202
0.000918503 0.0174301
0.000252857 0.0247931
0.000178603 0.0250708
-0.00154021 0.0199614
-0.00140641 0.0197828
-0.00135285 0.0204081
-0.000534969 0.0231351
-0.0006233 0.0225787
0.00072802 0.0225709
0.000631267 0.0231855
0.000714114 0.0222807
6.46006e-05 0.027505
5.84543e-05 0.0280617
7.99812e-05 0.0285015
3.6812e-05 0.0124726
4.37239e-05 0.0120102
4.93231e-05 0.0139475
5.21757e-05 0.0139494
5.03553e-05 0.0140693
1.46951e-05 0.0256131
0.00106185 0.0218641
0.000707802 0.0176136
0.000680087 0.0179721
2.24604e-05 0.0286747
1.94793e-05 0.0298235
8.01153e-05 0.0111895
8.17949e-05 0.00999042
-0.000565131 0.0178948
-0.000590799 0.0175087
-0.000527373 0.0169969
6.7228e-05 0.0113802
7.95432e-05 0.0122026
6.07971e-05 0.0117995
-0.000776388 0.0186052
-0.000731371 0.0192259
-0.00079214 0.0195453
0.000349032 0.0155377
0.000402507 0.0156873
0.00126477 0.0188441
0.00142987 0.0188297
4.47516e-05 0.0259647
8.30686e-05 0.0256466
-0.00036272 0.0158554
-0.000520986 0.0165194
-0.000432393 0.0158523
-0.000465837 0.0162584
0.00113468 0.0169961
0.00120425 0.01637
0.000668971 0.0241943
0.00108758 0.0239211
3.07028e-05 0.0269152
5.13476e-05 0.0268465
4.72708e-05 0.0274148
0.00106616 0.0191652
0.00113174 0.0199387
0.00100873 0.0197886
-0.00043483 0.0239785
-0.000467376 0.0236675
5.64001e-05 0.0287384
1.9429e-05 0.0276727
0.000562272 0.0237509
4.82714e-05 0.0113274
0.000256034 0.0146384
0.00027763 0.0150625
0.000422788 0.0244047
0.000512628 0.0238316
0.000124519 0.0267967
0.000211613 0.0261133
0.000496616 0.0156659
0.000377856 0.0148996
-7.51035e-05 0.0148472
-2.00476e-07 0.0143803
0.00033606 0.0255768
0.000271895 0.0253345
0.00185769 0.0188047
0.00162647 0.0184723
-0.00136018 0.0192248
-0.0011452 0.0186624
0.00094111 0.0203168
0.000922371 0.0195715
6.23444e-05 0.027789
4.20647e-05 0.0279281
4.9768e-05 0.0140668
4.5847e-05 0.0140612
-7.17904e-05 0.0144865
-0.000201421 0.0151553
-0.000113857 0.0136497
-0.000150485 0.0135311
-0.000224611 0.0143473
-0.000790819 0.0203495
-0.000905947 0.0197429
5.60993e-05 0.0125242
3.97022e-05 0.0118038
0.00107738 0.0208982
7.51546e-05 0.0267416
-0.00127547 0.0197043
5.7099e-05 0.0137599
-0.0014556 0.0226786
-0.00109383 0.0228883
-3.06522e-05 0.0103836
-7.75905e-05 0.0115131
0.000107957 0.0254325
4.32192e-05 0.0260167
0.00106988 0.0179381
0.00112294 0.018461
-2.26959e-05 0.0276474
-0.000841363 0.0176649
-0.000862133 0.0175172
0.000231734 0.0118894
0.000229108 0.0123091
0.000131765 0.0292476
0.000185492 0.0280521
-0.000588886 0.0242027
-0.000695277 0.0247404
-0.000373818 0.0246995
-0.000443474 0.0238822
0.00054208 0.0239112
0.000470399 0.0247574
3.57875e-05 0.0102766
6.03949e-05 0.0106028
6.90908e-05 0.0297384
4.61832e-05 0.0293792
0.000849098 0.0225933
0.000628101 0.023359
-0.000314581 0.0242675
-0.000416038 0.0242646
-0.000575841 0.0235525
7.38259e-05 0.0281694
7.83429e-05 0.0275971
0.000863166 0.0208703
0.000910542 0.0211055
3.95974e-05 0.0139627
6.39559e-05 0.0133988
2.7864e-05 0.0137676
-0.000925119 0.0219494
-0.001078 0.021196
-0.000913481 0.0217314
4.76249e-05 0.0138381
3.99134e-05 0.0138556
8.83857e-05 0.0143053
-0.000680822 0.0172765
-0.00078786 0.0178802
-0.000844012 0.0178558
0.00173395 0.0219486
0.00169568 0.0213622
0.000825176 0.0193197
0.000806277 0.020511
0.000777753 0.019738
3.73046e-05 0.0286953
6.56838e-05 0.028903
4.81986e-05 0.0292933
0.00159229 0.0207281
0.00155195 0.0214098
-0.000483297 0.025182
-0.000173837 0.0253618
0.00184692 0.0199758
0.00192436 0.019505
4.32106e-05 0.0257598
0.000155124 0.0257377
0.00038595 0.0255562
0.000392931 0.0256972
0.000112072 0.0115888
8.19399e-05 0.0104849
0.001296 0.0232961
0.000979153 0.0157829
-0.000134272 0.0121526
-0.000140561 0.0126117
-0.00118992 0.0178113
-0.000979262 0.0170073
-0.00088078 0.0171011
-0.000346399 0.0155931
-0.000490188 0.0156875
-0.000210841 0.0150236
-0.000535718 0.0165918
-0.00147792 0.0185903
-9.84419e-05 0.0145152
7.94489e-05 0.0112224
6.51219e-05 0.0108156
0.000262409 0.0151444
0.000448477 0.0156665
0.000162285 0.0147248
0.000245833 0.0150464
-0.000680381 0.019278
-0.000665011 0.0183541
0.000783581 0.0234324
0.000493292 0.0241897
0.000704607 0.0162659
0.000951848 0.0169996
-0.000134278 0.0251694
-3.91883e-05 0.0256463
-1.05003e-05 0.0138165
1.75084e-05 0.0257021
-9.43599e-05 0.0253315
-0.000367994 0.0242783
-0.000361596 0.0244776
-0.000239286 0.0252796
0.0017192 0.0199609
4.86032e-05 0.0258004
-0.000361156 0.0149844
-0.000282593 0.0141858
-0.000284206 0.0140603
-0.000852418 0.0173118
-0.000337984 0.0243288
-0.000501775 0.0234759
0.000526465 0.0155406
-1.23933e-05 0.0263741
-0.000138594 0.0254137
0.000520352 0.0157554
0.000629379 0.0166082
8.17434e-05 0.0276829
5.77586e-05 0.0274269
-0.000175467 0.0152275
2.69527e-05 0.0282436
2.1993e-05 0.0283347
2.28574e-05 0.0275612
0.000842332 0.0187938
0.000774828 0.0181102
0.000866177 0.0183417
-0.00156719 0.0206297
-0.00166372 0.0198686
0.000233252 0.0278958
0.000158363 0.0291482
0.000137474 0.0105794
0.000170932 0.0106507
4.73854e-05 0.0141319
0.000100776 0.0142206
-0.00018822 0.0127917
-0.000147714 0.0130642
-7.05709e-05 0.0124145
-0.000228112 0.0248305
-0.000373027 0.024024
0.000142205 0.0143336
8.30703e-05 0.0137039
5.82968e-05 0.0137095
-0.000880028 0.0215274
-0.000766204 0.0222236
2.8298e-05 0.0133167
7.8374e-05 0.0269871
7.62963e-05 0.0272981
0.000961148 0.0213547
0.000838383 0.0219062
-0.00138301 0.0212045
-0.00149683 0.0212797
7.76823e-05 0.0128396
7.82421e-05 0.013085
-0.000245512 0.0151914
0.00012081 0.0136816
0.000587487 0.0235696
-0.00090956 0.018709
-0.00077852 0.0181163
0.000229419 0.0145988
0.00014498 0.0144969
0.000931192 0.0228652
0.0011713 0.0226495
-0.000758022 0.0163199
-0.000624591 0.0155601
-0.00116288 0.0170079
0.000710222 0.0228547
3.88309e-05 0.0267969
-0.00123295 0.0207981
-0.00128772 0.021038
7.07613e-05 0.0142094
4.44169e-05 0.0139375
0.000711837 0.0155293
0.000827941 0.0151311
-0.000611707 0.0191498
0.000724431 0.0192286
3.49448e-05 0.0298775
6.71466e-05 0.00994006
-0.000622598 0.0227479
-0.000733832 0.0218608
2.3667e-05 0.0125458
5.70467e-05 0.0131107
2.96091e-05 0.0264519
6.49977e-05 0.0259909
0.00106004 0.0185793
0.000916511 0.0177555
-0.00163107 0.0192367
-0.00158746 0.0184393
-0.000431777 0.0147419
-0.000629927 0.0151788
-0.00139378 0.0172966
-0.00157132 0.0179613
-0.000225997 0.0145587
-2.06734e-05 0.0142391
-0.00100722 0.0222359
-0.000790236 0.0229547
-0.00103327 0.0226258
0.00130813 0.0227822
0.00156718 0.0226548
0.000713527 0.0204033
6.23418e-05 0.0301062
-0.000309164 0.0149419
-0.000293313 0.0150865
0.000635868 0.0226387
8.55454e-05 0.0298708
-0.00177728 0.0199524
5.71406e-05 0.0141509
-0.000308513 0.0254796
-0.000312511 0.0252804
5.68245e-06 0.028525
3.38172e-05 0.0295635
0.000315822 0.0143384
0.000150842 0.0141755
-0.00181694 0.0203654
-0.00175152 0.0210533
0.000972728 0.0219778
-0.00113801 0.020628
-0.00118922 0.0215752
3.49592e-05 0.0136046
0.000765892 0.0170865
0.00013925 0.0254683
-0.00132399 0.0219595
-0.00161055 0.0213897
-0.00121795 0.0163995
-0.000998048 0.0157803
0.000144451 0.0146405
0.00014273 0.0146774
-0.00177019 0.018773
-0.000259417 0.014328
0.000321285 0.0145282
0.000387174 0.015042
3.69595e-05 0.0259149
-0.00183493 0.0195031
-6.08774e-05 0.014168
0.000291702 0.0269687
0.000119414 0.0106059
-0.00162434 0.021974
0.000608188 0.0146953
-0.000256299 0.0248651
-0.00107612 0.0203758
-0.000982892 0.0201585
-0.000954268 0.0207844
2.83545e-05 0.0130088
4.40221e-05 0.0129038
3.81354e-05 0.0133137
-0.000644108 0.0227506
-0.000607968 0.0229975
-0.000964027 0.0193225
6.90886e-05 0.0129282
-0.000465958 0.0161589
-0.000377327 0.0153901
-0.000323531 0.0249735
-0.000648406 0.016656
0.00169513 0.0193243
9.76805e-05 0.0257061
0.000669165 0.0231705
0.00139423 0.022077
-0.000186124 0.0266507
-0.000158692 0.027234
-0.00010438 0.0278227
-4.99849e-05 0.0285368
-6.26162e-05 0.0279788
3.25587e-05 0.0279286
0.000690231 0.0171573
7.80892e-05 0.0117928
-0.000611044 0.017439
-0.000128504 0.0279178
-0.000209998 0.0267522
-1.33466e-06 0.0294136
-2.78402e-05 0.029272
0.00153487 0.0186729
0.000154917 0.0254522
-0.00038205 0.0158805
-0.000639668 0.0231537
-0.000225896 0.0137278
-0.000310907 0.0146645
0.00109371 0.0175261
0.000305044 0.024702
-0.000848839 0.0212839
2.29578e-05 0.0128115
-0.000179303 0.0263679
-0.00025347 0.0257556
-5.95749e-05 0.0291616
-0.000273119 0.0151465
-0.000159746 0.0145183
0.000232633 0.026408
0.000298495 0.0140147
0.000318666 0.0261159
0.000167461 0.012342
0.000242992 0.0271266
0.00023922 0.0267692
0.000203223 0.0123261
0.000246923 0.0132058
0.000678364 0.0216599
7.98331e-05 0.0300559
0.000749354 0.0171963
0.000827191 0.0177733
0.000709371 0.0170944
6.39605e-05 0.0265196
3.20711e-05 0.0270402
4.94153e-05 0.0271092
0.000717336 0.0229088
0.000832388 0.0224131
2.40619e-05 0.0270294
0.00094735 0.0184767
-0.000783511 0.022511
-0.000998819 0.0219975
0.000244162 0.0274236
0.00016684 0.0114747
-0.000122763 0.0116918
-5.92238e-05 0.0104433
6.79457e-05 0.0137482
5.31746e-05 0.0139618
-0.000986477 0.0183215
-0.00108178 0.0188236
1.69101e-05 0.0132651
-6.41783e-05 0.0139409
-0.000392623 0.0157871
-0.000516258 0.0164947
7.80232e-05 0.0124537
-0.00063934 0.0229398
-0.000637832 0.023039
0.000969482 0.0217414
3.13072e-05 0.026122
6.4275e-05 0.0263937
-4.33964e-05 0.0278086
-0.000697813 0.0178119
1.43505e-05 0.0262004
-0.00079439 0.0211447
2.34678e-05 0.0122561
0.000167438 0.0274103
0.000333517 0.0139986
-0.000108004 0.0270737
0.00130068 0.0181195
0.000193483 0.0251544
8.52736e-05 0.026028
0.000783957 0.0172561
3.11663e-05 0.0125556
5.93216e-05 0.0124892
-0.00016308 0.0261936
8.27689e-05 0.0293056
7.84847e-05 0.0287213
0.000705083 0.0219057
0.000784766 0.0212816
-0.000573723 0.0169463
-0.000429329 0.0161378
-0.000101965 0.0139078
-0.000500769 0.0234546
1.44385e-05 0.0123122
-4.3812e-05 0.0131172
7.27822e-05 0.0133816
-0.00103887 0.0191095
0.000106668 0.0278975
0.000433552 0.014913
-7.65509e-06 0.0120142
6.40377e-05 0.0135604
-0.00115787 0.0194764
0.00108549 0.0177655
0.000181171 0.0250681
5.03495e-05 0.013502
-0.00116507 0.0199668
      </DataArray> 
      <DataArray type="Float64" NumberOfComponents="4" Name="CauchyStress" format="ascii">
0.891091 59.8403 0 -0.353867
-0.429349 20.6208 0 0.0438936
-0.434877 20.6224 0 -0.0454751
-0.385167 20.6471 0 -0.228153
-0.392705 20.6628 0 0.22522
4.79569 48.7843 0 -13.7214
9.39128 24.0559 0 -14.8626
4.31708 5.16298 0 -4.97338
-9.92277 -1.43783 0 1.77843
-17.5395 -1.48132 0 0.327154
-9.59811 -1.29758 0 -2.12978
4.00448 5.02236 0 5.52869
9.78624 23.9989 0 15.3118
4.7056 48.7724 0 13.2824
1.32126 59.2297 0 0.330128
5.02539 47.7947 0 -13.5019
9.10242 24.4235 0 -13.8294
4.63886 4.38846 0 -4.54093
-9.84519 -1.57474 0 2.33753
-17.893 -1.17352 0 0.276573
-9.53049 -1.57302 0 -2.70874
4.62473 4.03903 0 4.89489
9.80197 23.9436 0 14.7554
4.92529 48.1265 0 14.1615
2.33905 58.4516 0 -7.82414
7.63004 38.444 0 -16.4718
7.52432 14.4379 0 -10.1928
-3.66637 0.990663 0 0.0345583
-16.7044 -0.986493 0 1.86743
-17.6127 -0.642368 0 -2.09616
-3.66483 1.46773 0 0.576447
7.68943 13.6805 0 10.3286
7.74351 38.6736 0 16.5634
2.55491 58.1955 0 7.68101
2.12639 59.1758 0 -7.92426
7.58741 38.175 0 -15.1603
8.20548 14.3068 0 -10.3197
-3.24224 0.544561 0 0.299781
-16.805 -0.908856 0 2.09025
-17.2293 -0.65227 0 -2.30315
-3.30097 0.783087 0 0.0307899
8.3996 13.3321 0 10.4464
7.82186 37.9784 0 15.8971
1.87288 58.9471 0 8.07865
-0.410697 20.3699 0 -0.389031
-0.39055 19.5623 0 -0.880366
0.0201714 18.7423 0 -0.50312
0.432347 18.4731 0 0.00410613
0.023731 18.7617 0 0.505075