<?xml version="1.0"?>
<VTKFile type="UnstructuredGrid">
  <UnstructuredGrid>
  <Piece NumberOfPoints="900"  NumberOfCells="100">
    <Points>
      <DataArray type="Float64" NumberOfComponents="3" format="ascii">
0 0 0
0.185882 0.189566 0
0.182397 0.523277 0
0.000137995 0.410758 0
0.0929365 0.0947933 0
0.183923 0.356832 0
0.0912678 0.467013 0
3.53643e-05 0.206083 0
0.0919736 0.281465 0
0.185882 0.189566 0
0.371815 0.379038 0
0.364647 0.635828 0
0.182397 0.523277 0
0.278849 0.284305 0
0.367813 0.507554 0
0.27352 0.579548 0
0.183923 0.356832 0
0.275868 0.432191 0
0.371815 0.379038 0
0.557734 0.568489 0
0.54693 0.748373 0
0.364647 0.635828 0
0.464766 0.473786 0
0.551726 0.658256 0
0.455786 0.69211 0
0.367813 0.507554 0
0.459765 0.582921 0
0.557734 0.568489 0
0.743712 0.757747 0
0.72929 0.860861 0
0.54693 0.748373 0
0.650742 0.663108 0
0.735677 0.808842 0
0.638082 0.804606 0
0.551726 0.658256 0
0.643697 0.733536 0
0.743712 0.757747 0
0.930566 0.945305 0
0.912538 0.972143 0
0.72929 0.860861 0
0.836721 0.852256 0
0.920566 0.957952 0
0.820666 0.917009 0
0.735677 0.808842 0
0.827777 0.884031 0
0.000137995 0.410758 0
0.182397 0.523277 0
0.180725 0.854563 0
0.000458173 0.817273 0
0.0912678 0.467013 0
0.181338 0.689121 0
0.0905896 0.835907 0
0.000304388 0.614376 0
0.0908222 0.651736 0
0.182397 0.523277 0
0.364647 0.635828 0
0.361018 0.891912 0
0.180725 0.854563 0
0.27352 0.579548 0
0.362378 0.763928 0
0.270865 0.873233 0
0.181338 0.689121 0
0.271854 0.72652 0
0.364647 0.635828 0
0.54693 0.748373 0
0.541382 0.929277 0
0.361018 0.891912 0
0.455786 0.69211 0
0.543469 0.838746 0
0.451192 0.910595 0
0.362378 0.763928 0
0.452919 0.801342 0
0.54693 0.748373 0
0.72929 0.860861 0
0.721922 0.966628 0
0.541382 0.929277 0
0.638082 0.804606 0
0.724691 0.913537 0
0.631598 0.947951 0
0.543469 0.838746 0
0.634035 0.876135 0
0.72929 0.860861 0
0.912538 0.972143 0
0.903088 1.00351 0
0.721922 0.966628 0
0.820666 0.917009 0
0.906669 0.98746 0
0.812429 0.985255 0
0.724691 0.913537 0
0.81553 0.950853 0
0.000458173 0.817273 0
0.180725 0.854563 0
0.180731 1.18503 0
0.000463863 1.22228 0
0.0905896 0.835907 0
0.180526 1.0198 0
0.0905954 1.20366 0
0.000519049 1.01979 0
0.0905191 1.01979 0
0.180725 0.854563 0
0.361018 0.891912 0
0.361024 1.14775 0
0.180731 1.18503 0
0.270865 0.873233 0
0.360567 1.01983 0
0.270871 1.16639 0
0.180526 1.0198 0
0.270539 1.01981 0
0.361018 0.891912 0
0.541382 0.929277 0
0.541386 1.11047 0
0.361024 1.14775 0
0.451192 0.910595 0
0.540687 1.01987 0
0.451197 1.12911 0
0.360567 1.01983 0
0.450618 1.01985 0
0.541382 0.929277 0
0.721922 0.966628 0
0.721926 1.07319 0
0.541386 1.11047 0
0.631598 0.947951 0
0.721 1.01991 0
0.631602 1.09183 0
0.540687 1.01987 0
0.630786 1.01989 0
0.721922 0.966628 0
0.903088 1.00351 0
0.903092 1.03634 0
0.721926 1.07319 0
0.812429 0.985255 0
0.90189 1.01993 0
0.812432 1.05458 0
0.721 1.01991 0
0.811394 1.01992 0
0.000463863 1.22228 0
0.180731 1.18503 0
0.182374 1.51626 0
7.88813e-05 1.62864 0
0.0905954 1.20366 0
0.18134 1.35045 0
0.0912288 1.57245 0
0.000297379 1.42512 0
0.0908202 1.38779 0
0.180731 1.18503 0
0.361024 1.14775 0
0.364646 1.40383 0
0.182374 1.51626 0
0.270871 1.16639 0
0.362385 1.27573 0
0.27351 1.46005 0
0.18134 1.35045 0
0.271859 1.31309 0
0.361024 1.14775 0
0.541386 1.11047 0
0.546937 1.29138 0
0.364646 1.40383 0
0.451197 1.12911 0
0.543476 1.201 0
0.45579 1.3476 0
0.362385 1.27573 0
0.452926 1.23836 0
0.541386 1.11047 0
0.721926 1.07319 0
0.729296 1.17896 0
0.546937 1.29138 0
0.631602 1.09183 0
0.724696 1.12628 0
0.638089 1.23518 0
0.543476 1.201 0
0.634041 1.16365 0
0.721926 1.07319 0
0.903092 1.03634 0
0.912546 1.06771 0
0.729296 1.17896 0
0.812432 1.05458 0
0.906676 1.05239 0
0.820672 1.12283 0
0.724696 1.12628 0
0.815536 1.08899 0
7.88813e-05 1.62864 0
0.182374 1.51626 0
0.185701 1.84985 0
-0.000358544 2.03912 0
0.0912288 1.57245 0
0.183843 1.68265 0
0.0926743 1.94449 0
-0.000135721 1.83319 0
0.0918524 1.75792 0
0.182374 1.51626 0
0.364646 1.40383 0
0.371755 1.66059 0
0.185701 1.84985 0
0.27351 1.46005 0
0.367791 1.53209 0
0.278736 1.75523 0
0.183843 1.68265 0
0.275822 1.60738 0
0.364646 1.40383 0
0.546937 1.29138 0
0.557728 1.47128 0
0.371755 1.66059 0
0.45579 1.3476 0
0.551729 1.3815 0
0.46474 1.56592 0
0.367791 1.53209 0
0.459759 1.45679 0
0.546937 1.29138 0
0.729296 1.17896 0
0.743717 1.28208 0
0.557728 1.47128 0
0.638089 1.23518 0
0.735683 1.23098 0
0.650745 1.3767 0
0.551729 1.3815 0
0.643703 1.30626 0
0.729296 1.17896 0
0.912546 1.06771 0
0.930572 1.09454 0
0.743717 1.28208 0
0.820672 1.12283 0
0.920574 1.0819 0
0.836724 1.18759 0
0.735683 1.23098 0
0.827782 1.15581 0
0.930572 1.09454 0
0.955611 1.11408 0
0.844415 1.29756 0
0.743717 1.28208 0
0.942379 1.10536 0
0.899647 1.20523 0
0.79362 1.2906 0
0.836724 1.18759 0
0.867588 1.1973 0
0.955611 1.11408 0
0.984804 1.12438 0
0.947847 1.30598 0
0.844415 1.29756 0
0.969873 1.12047 0
0.966176 1.21479 0
0.895894 1.30276 0
0.899647 1.20523 0
0.932608 1.21114 0
0.984804 1.12438 0
1.01531 1.12438 0
1.05226 1.30598 0
0.947847 1.30598 0
1.00006 1.12569 0
1.03394 1.21479 0
1.00006 1.30707 0
0.966176 1.21479 0
1.00006 1.21602 0
1.01531 1.12438 0
1.0445 1.11407 0
1.15569 1.29756 0
1.05226 1.30598 0
1.03024 1.12047 0
1.10046 1.20523 0
1.10421 1.30275 0
1.03394 1.21479 0
1.0675 1.21113 0
1.0445 1.11407 0
1.06953 1.09454 0
1.25639 1.28208 0
1.15569 1.29756 0
1.05773 1.10536 0
1.16338 1.18759 0
1.20649 1.2906 0
1.10046 1.20523 0
1.13252 1.1973 0
0.743717 1.28208 0
0.844415 1.29756 0
0.733966 1.48292 0
0.557728 1.47128 0
0.79362 1.2906 0
0.789216 1.39019 0
0.645685 1.4777 0
0.650745 1.3767 0
0.71968 1.38414 0
0.844415 1.29756 0
0.947847 1.30598 0
0.911221 1.4892 0
0.733966 1.48292 0
0.895894 1.30276 0
0.929542 1.39751 0
0.8225 1.4868 0
0.789216 1.39019 0
0.859215 1.39471 0
0.947847 1.30598 0
1.05226 1.30598 0
1.08888 1.4892 0
0.911221 1.4892 0
1.00006 1.30707 0
1.07057 1.39751 0
1.00005 1.49001 0
0.929542 1.39751 0
1.00005 1.39846 0
1.05226 1.30598 0
1.15569 1.29756 0
1.26614 1.48291 0
1.08888 1.4892 0
1.10421 1.30275 0
1.21089 1.39019 0
1.1776 1.4868 0
1.07057 1.39751 0
1.14089 1.39471 0
1.15569 1.29756 0
1.25639 1.28208 0
1.44237 1.47128 0
1.26614 1.48291 0
1.20649 1.2906 0
1.34936 1.3767 0
1.35442 1.4777 0
1.21089 1.39019 0
1.28042 1.38414 0
0.557728 1.47128 0
0.733966 1.48292 0
0.623472 1.66845 0
0.371755 1.66059 0
0.645685 1.4777 0
0.67872 1.57567 0
0.497731 1.66491 0
0.46474 1.56592 0
0.571707 1.5713 0
0.733966 1.48292 0
0.911221 1.4892 0
0.874569 1.67275 0
0.623472 1.66845 0
0.8225 1.4868 0
0.892897 1.58096 0
0.749062 1.6711 0
0.67872 1.57567 0
0.785784 1.57893 0
0.911221 1.4892 0
1.08888 1.4892 0
1.12553 1.67275 0
0.874569 1.67275 0
1.00005 1.49001 0
1.10721 1.58096 0
1.00005 1.67331 0
0.892897 1.58096 0
1.00005 1.58164 0
1.08888 1.4892 0
1.26614 1.48291 0
1.37663 1.66845 0
1.12553 1.67275 0
1.1776 1.4868 0
1.32138 1.57567 0
1.25104 1.6711 0
1.10721 1.58096 0
1.21432 1.57893 0
1.26614 1.48291 0
1.44237 1.47128 0
1.62835 1.66059 0
1.37663 1.66845 0
1.35442 1.4777 0
1.53536 1.56592 0
1.50237 1.66491 0
1.32138 1.57567 0
1.4284 1.57129 0
0.371755 1.66059 0
0.623472 1.66845 0
0.512915 1.85403 0
0.185701 1.84985 0
0.497731 1.66491 0
0.568205 1.76124 0
0.349707 1.85214 0
0.278736 1.75523 0
0.42373 1.75853 0
0.623472 1.66845 0
0.874569 1.67275 0
0.837882 1.85641 0
0.512915 1.85403 0
0.749062 1.6711 0
0.856232 1.76457 0
0.675569 1.85548 0
0.568205 1.76124 0
0.712325 1.76329 0
0.874569 1.67275 0
1.12553 1.67275 0
1.16222 1.85641 0
0.837882 1.85641 0
1.00005 1.67331 0
1.14387 1.76457 0
1.00005 1.85673 0
0.856232 1.76457 0
1.00005 1.76501 0
1.12553 1.67275 0
1.37663 1.66845 0
1.48718 1.85403 0
1.16222 1.85641 0
1.25104 1.6711 0
1.4319 1.76124 0
1.32453 1.85548 0
1.14387 1.76457 0
1.28777 1.76329 0
1.37663 1.66845 0
1.62835 1.66059 0
1.8144 1.84985 0
1.48718 1.85403 0
1.50237 1.66491 0
1.72137 1.75523 0
1.65039 1.85214 0
1.4319 1.76124 0
1.57637 1.75853 0
0.185701 1.84985 0
0.512915 1.85403 0
0.40227 2.03959 0
-0.000358544 2.03912 0
0.349707 1.85214 0
0.457603 1.94681 0
0.201642 2.03935 0
0.0926743 1.94449 0
0.275673 1.94574 0
0.512915 1.85403 0
0.837882 1.85641 0
0.801121 2.04012 0
0.40227 2.03959 0
0.675569 1.85548 0
0.819515 1.94826 0
0.601972 2.03988 0
0.457603 1.94681 0
0.638788 1.94768 0
0.837882 1.85641 0
1.16222 1.85641 0
1.19897 2.04012 0
0.801121 2.04012 0
1.00005 1.85673 0
1.18058 1.94826 0
1.00005 2.0402 0
0.819515 1.94826 0
1.00005 1.94846 0
1.16222 1.85641 0
1.48718 1.85403 0
1.59783 2.03959 0
1.19897 2.04012 0
1.32453 1.85548 0
1.5425 1.94681 0
1.39812 2.03988 0
1.18058 1.94826 0
1.36131 1.94768 0
1.48718 1.85403 0
1.8144 1.84985 0
2.00046 2.03912 0
1.59783 2.03959 0
1.65039 1.85214 0
1.90743 1.94449 0
1.79846 2.03935 0
1.5425 1.94681 0
1.72443 1.94574 0
1.06954 0.945305 0
1.25639 0.757747 0
1.27081 0.860861 0
1.08757 0.972143 0
1.16338 0.852256 0
1.26443 0.808842 0
1.17944 0.917009 0
1.07954 0.957952 0
1.17233 0.884031 0
1.25639 0.757747 0
1.44237 0.568489 0
1.45317 0.748373 0
1.27081 0.860861 0
1.34936 0.663108 0
1.44838 0.658256 0
1.36202 0.804606 0
1.26443 0.808842 0
1.35641 0.733536 0
1.44237 0.568489 0
1.62829 0.379038 0
1.63546 0.635828 0
1.45317 0.748373 0
1.53534 0.473786 0
1.63229 0.507554 0
1.54432 0.69211 0
1.44838 0.658256 0
1.54034 0.582921 0
1.62829 0.379038 0
1.81422 0.189566 0
1.81771 0.523277 0
1.63546 0.635828 0
1.72125 0.284305 0
1.81618 0.356832 0
1.72658 0.579548 0
1.63229 0.507554 0
1.72424 0.432191 0
1.81422 0.189566 0
2.0001 0 0
1.99997 0.410758 0
1.81771 0.523277 0
1.90717 0.0947933 0
2.00007 0.206083 0
1.90884 0.467013 0
1.81618 0.356832 0
1.90813 0.281465 0
1.08757 0.972143 0
1.27081 0.860861 0
1.27818 0.966628 0
1.09702 1.00351 0
1.17944 0.917009 0
1.27541 0.913537 0
1.18767 0.985255 0
1.09343 0.98746 0
1.18457 0.950853 0
1.27081 0.860861 0
1.45317 0.748373 0
1.45872 0.929277 0
1.27818 0.966628 0
1.36202 0.804606 0
1.45663 0.838746 0
1.36851 0.947951 0
1.27541 0.913537 0
1.36607 0.876135 0
1.45317 0.748373 0
1.63546 0.635828 0
1.63909 0.891912 0
1.45872 0.929277 0
1.54432 0.69211 0
[...]
    <PointData>
      <DataArray type="Float64" NumberOfComponents="2" Name="Displacement" format="ascii">
0 0
2.44523e-05 0.00370851
0.000220694 0.0102185
0.000137995 0.00812175
7.56281e-06 0.00186434
0.000105342 0.00697133
0.000179843 0.00916576
3.53643e-05 0.00407966
6.50362e-05 0.00553367
2.44523e-05 0.00370851
9.93555e-05 0.00732273
0.000295237 0.0123479
0.000220694 0.0102185
6.18712e-05 0.0055184
0.000178114 0.00983615
0.000256205 0.0112793
0.000105342 0.00697133
0.000141718 0.00840202
9.93555e-05 0.00732273
0.000160682 0.0109158
0.000402874 0.0144716
0.000295237 0.0123479
0.000120985 0.00914131
0.000274651 0.0126805
0.000346248 0.0134194
0.000178114 0.00983615
0.000221781 0.0112748
0.000160682 0.0109158
0.000280778 0.0143154
0.000586313 0.0165371
0.000402874 0.0144716
0.000239948 0.0126052
0.000407826 0.0154098
0.000466748 0.0154935
0.000274651 0.0126805
0.000337006 0.0140319
0.000280778 0.0143154
0.00127685 0.0160159
0.00165892 0.0173974
0.000586313 0.0165371
0.000360442 0.0158952
0.00147989 0.0166627
0.000874943 0.0174745
0.000407826 0.0154098
0.000599568 0.0166696
0.000137995 0.00812175
0.000220694 0.0102185
0.000484514 0.0166364
0.000458173 0.0159804
0.000179843 0.00916576
0.000363819 0.0134418
0.000469355 0.0162971
0.000304388 0.0120924
0.000334989 0.0127551
0.000220694 0.0102185
0.000295237 0.0123479
0.000537089 0.0173503
0.000484514 0.0166364
0.000256205 0.0112793
0.000429295 0.0148544
0.000504234 0.0169889
0.000363819 0.0134418
0.000392223 0.0141431
0.000295237 0.0123479
0.000402874 0.0144716
0.000660142 0.0180805
0.000537089 0.0173503
0.000346248 0.0134194
0.000545493 0.016277
0.000590607 0.0177166
0.000429295 0.0148544
0.000482561 0.0155701
0.000402874 0.0144716
0.000586313 0.0165371
0.000960042 0.0187969
0.000660142 0.0180805
0.000466748 0.0154935
0.000793121 0.0176719
0.000755949 0.0184372
0.000545493 0.016277
0.000624669 0.0169685
0.000586313 0.0165371
0.00165892 0.0173974
0.00188541 0.0190481
0.000960042 0.0187969
0.000874943 0.0174745
0.00179741 0.0181998
0.00134644 0.0191068
0.000793121 0.0176719
0.00114562 0.0182909
0.000458173 0.0159804
0.000484514 0.0166364
0.000489843 0.0229619
0.000463863 0.0235848
0.000469355 0.0162971
0.000531139 0.019803
0.0004749 0.0232789
0.000519049 0.0197927
0.000521761 0.0197945
0.000484514 0.0166364
0.000537089 0.0173503
0.000541685 0.022315
0.000489843 0.0229619
0.000504234 0.0169889
0.000577773 0.0198334
0.000509258 0.0226402
0.000531139 0.019803
0.000547044 0.0198165
0.000537089 0.0173503
0.000660142 0.0180805
0.00066344 0.0216618
0.000541685 0.022315
0.000590607 0.0177166
0.000702562 0.0198707
0.000594627 0.0219874
0.000577773 0.0198334
0.000630885 0.0198519
0.000660142 0.0180805
0.000960042 0.0187969
0.000961948 0.021011
0.00066344 0.0216618
0.000755949 0.0184372
0.0010208 0.0199035
0.000758441 0.0213403
0.000702562 0.0198707
0.00080437 0.0198882
0.000960042 0.0187969
0.00188541 0.0190481
0.00188744 0.0207924
0.000961948 0.021011
0.00134644 0.0191068
0.00191592 0.01992
0.00134824 0.0207241
0.0010208 0.0199035
0.00141802 0.0199152
0.000463863 0.0235848
0.000489843 0.0229619
0.00019757 0.0293178
7.88813e-05 0.0312846
0.0004749 0.0232789
0.000365183 0.0261332
0.000140576 0.0303068
0.000297379 0.0274125
0.000332753 0.0267818
0.000489843 0.0229619
0.000541685 0.022315
0.000293291 0.0273063
0.00019757 0.0293178
0.000509258 0.0226402
0.000434658 0.0248067
0.000245517 0.028318
0.000365183 0.0261332
0.000396104 0.0254741
0.000541685 0.022315
0.00066344 0.0216618
0.000408266 0.0252783
0.000293291 0.0273063
0.000594627 0.0219874
0.00055095 0.023468
0.000349475 0.026286
0.000434658 0.0248067
0.000488413 0.0241344
0.00066344 0.0216618
0.000961948 0.021011
0.000590631 0.0232779
0.000408266 0.0252783
0.000758441 0.0213403
0.000796509 0.0221386
0.000472085 0.0242929
0.00055095 0.023468
0.000629076 0.0228123
0.000961948 0.021011
0.00188744 0.0207924
0.00166407 0.0224467
0.000590631 0.0232779
0.00134824 0.0207241
0.00180123 0.0216421
0.000878684 0.0223604
0.000796509 0.0221386
0.00114871 0.0215414
7.88813e-05 0.0312846
0.00019757 0.0293178
-0.000156557 0.035707
-0.000358544 0.0391187
0.000140576 0.0303068
2.5437e-05 0.0325113
-0.00025462 0.0374159
-0.000135721 0.0351939
-5.64348e-05 0.0338511
0.00019757 0.0293178
0.000293291 0.0273063
3.91404e-05 0.0323093
-0.000156557 0.035707
0.000245517 0.028318
0.000156183 0.0298084
-5.09789e-05 0.0340148
2.5437e-05 0.0325113
9.51721e-05 0.0311674
0.000293291 0.0273063
0.000408266 0.0252783
0.000154868 0.0288503
3.91404e-05 0.0323093
0.000349475 0.026286
0.00027667 0.0270763
9.55037e-05 0.0305679
0.000156183 0.0298084
0.000215522 0.0284322
0.000408266 0.0252783
0.000590631 0.0232779
0.00028527 0.0255142
0.000154868 0.0288503
0.000472085 0.0242929
0.00041249 0.0244116
0.000242826 0.0272
0.00027667 0.0270763
0.000341933 0.0257626
0.000590631 0.0232779
0.00166407 0.0224467
0.0012829 0.0238343
0.00028527 0.0255142
0.000878684 0.0223604
0.00148581 0.0231843
0.000363841 0.0239479
0.00041249 0.0244116
0.000603329 0.0231689
0.0012829 0.0238343
0.000865404 0.0249572
9.13782e-05 0.0262644
0.00028527 0.0255142
0.00108909 0.0244439
0.000113088 0.0250248
0.000187187 0.0258735
0.000363841 0.0239479
0.0002267 0.0244806
0.000865404 0.0249572
0.000338895 0.0255865
1.63911e-05 0.026945
9.13782e-05 0.0262644
0.000613152 0.0253447
2.78509e-05 0.0258748
2.93788e-05 0.0266531
0.000113088 0.0250248
4.54365e-05 0.0255213
0.000338895 0.0255865
-0.00023577 0.0255864
8.69247e-05 0.026945
1.63911e-05 0.026945
5.15557e-05 0.025668
7.5477e-05 0.0258748
5.1659e-05 0.0270484
2.78509e-05 0.0258748
5.16674e-05 0.0259984
-0.00023577 0.0255864
-0.000762188 0.024957
1.1928e-05 0.0262643
8.69247e-05 0.026945
-0.000509988 0.0253445
-9.79173e-06 0.0250247
7.39311e-05 0.0266531
7.5477e-05 0.0258748
5.78735e-05 0.0255212
-0.000762188 0.024957
-0.00117959 0.0238343
-0.000181956 0.0255142
1.1928e-05 0.0262643
-0.00098582 0.0244438
-0.000260529 0.0239479
-8.38775e-05 0.0258735
-9.79173e-06 0.0250247
-0.000123401 0.0244805
0.00028527 0.0255142
9.13782e-05 0.0262644
6.47719e-05 0.029443
0.000154868 0.0288503
0.000187187 0.0258735
0.000103343 0.0278105
0.000110344 0.0291521
0.000242826 0.0272
0.000176433 0.0275008
9.13782e-05 0.0262644
1.63911e-05 0.026945
2.45016e-05 0.0299254
6.47719e-05 0.029443
2.93788e-05 0.0266531
2.87184e-05 0.0283551
3.09673e-05 0.0297203
0.000103343 0.0278105
4.78169e-05 0.0281203
1.63911e-05 0.026945
8.69247e-05 0.026945
7.88138e-05 0.0299254
2.45016e-05 0.0299254
5.1659e-05 0.0270484
7.45879e-05 0.028355
5.1658e-05 0.0299978
2.87184e-05 0.0283551
5.1653e-05 0.0284384
8.69247e-05 0.026945
1.1928e-05 0.0262643
3.85405e-05 0.029443
7.88138e-05 0.0299254
7.39311e-05 0.0266531
-3.41198e-08 0.0278104
7.23466e-05 0.0297203
7.45879e-05 0.028355
5.54902e-05 0.0281202
1.1928e-05 0.0262643
-0.000181956 0.0255142
-5.15544e-05 0.0288503
3.85405e-05 0.029443
-8.38775e-05 0.0258735
-0.000139512 0.0272
-7.03254e-06 0.0291521
-3.41198e-08 0.0278104
-7.3121e-05 0.0275008
0.000154868 0.0288503
6.47719e-05 0.029443
-7.39678e-06 0.0328013
3.91404e-05 0.0323093
0.000110344 0.0291521
2.97227e-05 0.031112
1.37502e-05 0.0325453
9.55037e-05 0.0305679
6.08257e-05 0.0308386
6.47719e-05 0.029443
2.45016e-05 0.0299254
7.66372e-06 0.0332317
-7.39678e-06 0.0328013
3.09673e-05 0.0297203
1.8162e-05 0.0315596
-1.19475e-05 0.033049
2.97227e-05 0.031112
1.19417e-05 0.0313705
2.45016e-05 0.0299254
7.88138e-05 0.0299254
9.56484e-05 0.0332317
7.66372e-06 0.0332317
5.1658e-05 0.0299978
8.51543e-05 0.0315596
5.1656e-05 0.0332961
1.8162e-05 0.0315596
5.16585e-05 0.0316262
7.88138e-05 0.0299254
3.85405e-05 0.029443
0.000110709 0.0328013
9.56484e-05 0.0332317
7.23466e-05 0.0297203
7.35904e-05 0.031112
0.00011526 0.033049
8.51543e-05 0.0315596
9.13731e-05 0.0313705
3.85405e-05 0.029443
-5.15544e-05 0.0288503
6.41731e-05 0.0323093
0.000110709 0.0328013
-7.03254e-06 0.0291521
7.80952e-06 0.0305679
8.95629e-05 0.0325453
7.35904e-05 0.031112
4.24867e-05 0.0308386
3.91404e-05 0.0323093
-7.39678e-06 0.0328013
-0.000142718 0.0362058
-0.000156557 0.035707
1.37502e-05 0.0325453
-6.36978e-05 0.0345028
-0.000153247 0.0359544
-5.09789e-05 0.0340148
-5.87212e-05 0.0342534
-7.39678e-06 0.0328013
7.66372e-06 0.0332317
-4.51936e-05 0.0366526
-0.000142718 0.0362058
-1.19475e-05 0.033049
-1.24913e-05 0.0349328
-0.000109915 0.0364593
-6.36978e-05 0.0345028
-5.09687e-05 0.0347486
7.66372e-06 0.0332317
9.56484e-05 0.0332317
0.000148504 0.0366526
-4.51936e-05 0.0366526
5.1656e-05 0.0332961
0.000115802 0.0349328
5.16548e-05 0.0367213
-1.24913e-05 0.0349328
5.16552e-05 0.034998
9.56484e-05 0.0332317
0.000110709 0.0328013
0.000246031 0.0362058
0.000148504 0.0366526
0.00011526 0.033049
0.00016701 0.0345028
0.000213226 0.0364593
0.000115802 0.0349328
0.00015428 0.0347486
0.000110709 0.0328013
6.41731e-05 0.0323093
0.000259871 0.035707
0.000246031 0.0362058
8.95629e-05 0.0325453
0.000154292 0.0340148
0.000256561 0.0359544
0.00016701 0.0345028
0.000162034 0.0342533
-0.000156557 0.035707
-0.000142718 0.0362058
-0.000366543 0.0395938
-0.000358544 0.0391187
-0.000153247 0.0359544
-0.000244232 0.0379019
-0.000360846 0.0393456
-0.00025462 0.0374159
-0.000258308 0.0376467
-0.000142718 0.0362058
-4.51936e-05 0.0366526
-0.000171419 0.0401166
-0.000366543 0.0395938
-0.000109915 0.0364593
-9.44599e-05 0.0383818
-0.000311981 0.0398811
-0.000244232 0.0379019
-0.000193548 0.0381717
-4.51936e-05 0.0366526
0.000148504 0.0366526
0.000274721 0.0401166
-0.000171419 0.0401166
5.16548e-05 0.0367213
0.000197767 0.0383818
5.16502e-05 0.0402017
-9.44599e-05 0.0383818
5.16531e-05 0.0384568
0.000148504 0.0366526
0.000246031 0.0362058
0.000469857 0.0395938
0.000274721 0.0401166
0.000213226 0.0364593
0.000347545 0.0379019
0.000415289 0.0398812
0.000197767 0.0383818
0.000296858 0.0381717
0.000246031 0.0362058
0.000259871 0.035707
0.000461857 0.0391187
0.000469857 0.0395938
0.000256561 0.0359544
0.000357934 0.0374159
0.000464159 0.0393456
0.000347545 0.0379019
0.000361621 0.0376467
-0.00117353 0.0160159
-0.000177464 0.0143154
-0.000483 0.0165371
-0.0015556 0.0173974
-0.00025713 0.0158952
-0.000304513 0.0154098
-0.00077163 0.0174745
-0.00137658 0.0166627
-0.000496256 0.0166696
-0.000177464 0.0143154
-5.73683e-05 0.0109158
-0.00029956 0.0144716
-0.000483 0.0165371
-0.000136634 0.0126052
-0.000171338 0.0126805
-0.000363434 0.0154935
-0.000304513 0.0154098
-0.000233692 0.0140319
-5.73683e-05 0.0109158
3.95804e-06 0.00732273
-0.000191923 0.0123479
-0.00029956 0.0144716
-1.7672e-05 0.00914131
-7.48009e-05 0.00983615
-0.000242935 0.0134194
-0.000171338 0.0126805
-0.000118467 0.0112748
3.95804e-06 0.00732273
7.88611e-05 0.00370851
-0.00011738 0.0102185
-0.000191923 0.0123479
4.14424e-05 0.0055184
-2.02839e-06 0.00697133
-0.000152891 0.0112793
-7.48009e-05 0.00983615
-3.84044e-05 0.00840202
7.88611e-05 0.00370851
0.000103314 0
-3.46815e-05 0.00812175
-0.00011738 0.0102185
9.57507e-05 0.00186434
6.79491e-05 0.00407966
-7.65299e-05 0.00916576
-2.02839e-06 0.00697133
3.82773e-05 0.00553367
-0.0015556 0.0173974
-0.000483 0.0165371
-0.000856729 0.0187969
-0.0017821 0.0190481
-0.00077163 0.0174745
-0.000689808 0.0176719
-0.00124313 0.0191068
-0.0016941 0.0181998
-0.00104231 0.0182909
-0.000483 0.0165371
-0.00029956 0.0144716
-0.000556829 0.0180805
-0.000856729 0.0187969
-0.000363434 0.0154935
-0.00044218 0.016277
-0.000652636 0.0184372
-0.000689808 0.0176719
-0.000521355 0.0169685
-0.00029956 0.0144716
-0.000191923 0.0123479
-0.000433776 0.0173503
-0.000556829 0.0180805
-0.000242935 0.0134194
-0.000325982 0.0148544
-0.000487293 0.0177166
-0.00044218 0.016277
-0.000379247 0.0155701
-0.000191923 0.0123479
-0.00011738 0.0102185
-0.0003812 0.0166364
-0.000433776 0.0173503
-0.000152891 0.0112793
-0.000260506 0.0134418
-0.000400921 0.0169889
-0.000325982 0.0148544
-0.000288909 0.0141431
-0.00011738 0.0102185
-3.46815e-05 0.00812175
-0.000354859 0.0159804
-0.0003812 0.0166364
-7.65299e-05 0.00916576
-0.000201075 0.0120924
-0.000366041 0.0162971
-0.000260506 0.0134418
-0.000231675 0.0127551
-0.0017821 0.0190481
-0.000856729 0.0187969
-0.000858635 0.021011
-0.00178413 0.0207924
-0.00124313 0.0191068
-0.00091749 0.0199035
-0.00124493 0.0207241
-0.00181261 0.01992
-0.00131471 0.0199152
-0.000856729 0.0187969
-0.000556829 0.0180805
-0.000560126 0.0216618
-0.000858635 0.021011
-0.000652636 0.0184372
-0.000599248 0.0198707
-0.000655128 0.0213403
-0.00091749 0.0199035
-0.000701057 0.0198882
-0.000556829 0.0180805
-0.000433776 0.0173503
-0.000438372 0.022315
-0.000560126 0.0216618
-0.000487293 0.0177166
-0.000474459 0.0198334
-0.000491314 0.0219874
-0.000599248 0.0198707
-0.000527571 0.0198519
-0.000433776 0.0173503
-0.0003812 0.0166364
-0.00038653 0.0229619
-0.000438372 0.022315
-0.000400921 0.0169889
-0.000427826 0.019803
-0.000405944 0.0226402
-0.000474459 0.0198334
-0.000443731 0.0198165
-0.0003812 0.0166364
-0.000354859 0.0159804
-0.000360549 0.0235848
-0.00038653 0.0229619
-0.000366041 0.0162971
-0.000415735 0.0197927
-0.000371587 0.0232789
-0.000427826 0.019803
-0.000418447 0.0197945
-0.00178413 0.0207924
-0.000858635 0.021011
-0.000487318 0.0232779
-0.00156076 0.0224467
-0.00124493 0.0207241
-0.000693196 0.0221386
-0.000775372 0.0223604
-0.00169791 0.0216421
-0.0010454 0.0215414
-0.000858635 0.021011
-0.000560126 0.0216618
-0.000304952 0.0252783
-0.000487318 0.0232779
-0.000655128 0.0213403
-0.000447636 0.023468
-0.000368771 0.0242929
-0.000693196 0.0221386
-0.000525763 0.0228123
-0.000560126 0.0216618
-0.000438372 0.022315
-0.000189978 0.0273063
-0.000304952 0.0252783
-0.000491314 0.0219874
-0.000331344 0.0248067
-0.000246162 0.026286
-0.000447636 0.023468
-0.000385099 0.0241344
-0.000438372 0.022315
-0.00038653 0.0229619
-9.42567e-05 0.0293178
-0.000189978 0.0273063
-0.000405944 0.0226402
-0.00026187 0.0261332
-0.000142204 0.028318
-0.000331344 0.0248067
-0.000292791 0.0254741
-0.00038653 0.0229619
-0.000360549 0.0235848
2.44321e-05 0.0312846
-9.42567e-05 0.0293178
-0.000371587 0.0232789
-0.000194065 0.0274125
-3.72629e-05 0.0303068
-0.00026187 0.0261332
-0.000229439 0.0267818
-0.00156076 0.0224467
-0.000487318 0.0232779
-0.000181956 0.0255142
-0.00117959 0.0238343
-0.000775372 0.0223604
-0.000309177 0.0244116
-0.000260529 0.0239479
-0.00138249 0.0231843
-0.000500016 0.0231689
-0.000487318 0.0232779
-0.000304952 0.0252783
-5.15544e-05 0.0288503
-0.000181956 0.0255142
-0.000368771 0.0242929
-0.000173356 0.0270763
-0.000139512 0.0272
-0.000309177 0.0244116
-0.000238619 0.0257626
-0.000304952 0.0252783
-0.000189978 0.0273063
6.41731e-05 0.0323093
-5.15544e-05 0.0288503
-0.000246162 0.026286
-5.28694e-05 0.0298084
7.80952e-06 0.0305679
-0.000173356 0.0270763
-0.000112208 0.0284322
-0.000189978 0.0273063
-9.42567e-05 0.0293178
0.000259871 0.035707
6.41731e-05 0.0323093
-0.000142204 0.028318
7.78765e-05 0.0325113
0.000154292 0.0340148
-5.28694e-05 0.0298084
8.14128e-06 0.0311674
-9.42567e-05 0.0293178
2.44321e-05 0.0312846
0.000461857 0.0391187
0.000259871 0.035707
-3.72629e-05 0.0303068
0.000239034 0.0351939
0.000357934 0.0374159
7.78765e-05 0.0325113
0.000159748 0.0338511
0 0
-1.21356e-05 0
2.41839e-06 0.00354645
2.44523e-05 0.00370851
-1.63391e-06 0
-8.47147e-06 0.00178089
1.68224e-05 0.00362183
7.56281e-06 0.00186434
7.21591e-07 0.00182113
-1.21356e-05 0
5.22213e-06 0
1.19006e-05 0.003391
2.41839e-06 0.00354645
-1.44092e-05 0
7.96283e-06 0.00169909
-3.20709e-06 0.0034613
-8.47147e-06 0.00178089
-1.02439e-05 0.00173585
5.22213e-06 0
9.80893e-05 0
9.1412e-05 0.003391
1.19006e-05 0.003391
5.16554e-05 0
9.53491e-05 0.00169909
5.16561e-05 0.00336557
7.96283e-06 0.00169909
5.16557e-05 0.00168582
9.80893e-05 0
0.00011545 0
0.000100896 0.00354646
9.1412e-05 0.003391
0.000117722 0
0.000111785 0.00178089
0.000106521 0.00346131
9.53491e-05 0.00169909
0.000113557 0.00173586
0.00011545 0
0.000103314 0
7.88611e-05 0.00370851
0.000100896 0.00354646
0.000104948 0
9.57507e-05 0.00186434
8.64911e-05 0.00362183
0.000111785 0.00178089
0.000102592 0.00182114
2.44523e-05 0.00370851
2.41839e-06 0.00354645
3.27307e-05 0.00703247
9.93555e-05 0.00732273
1.68224e-05 0.00362183
1.77649e-05 0.00529893
6.51722e-05 0.00718955
6.18712e-05 0.0055184
4.18643e-05 0.00541232
2.41839e-06 0.00354645
1.19006e-05 0.003391
2.153e-05 0.00674145
3.27307e-05 0.00703247
-3.20709e-06 0.0034613
1.71606e-05 0.0050744
1.54533e-05 0.00686804
1.77649e-05 0.00529893
6.3484e-06 0.00517414
1.19006e-05 0.003391
9.1412e-05 0.003391
8.17825e-05 0.00674147
2.153e-05 0.00674145
5.16561e-05 0.00336557
8.61512e-05 0.00507441
5.16562e-05 0.00669635
1.71606e-05 0.0050744
5.16557e-05 0.00503857
9.1412e-05 0.003391
0.000100896 0.00354646
7.05823e-05 0.00703249
8.17825e-05 0.00674147
0.000106521 0.00346131
8.55485e-05 0.00529895
8.78593e-05 0.00686806
8.61512e-05 0.00507441
9.69642e-05 0.00517415
0.000100896 0.00354646
7.88611e-05 0.00370851
3.95804e-06 0.00732273
7.05823e-05 0.00703249
8.64911e-05 0.00362183
4.14424e-05 0.0055184
3.81412e-05 0.00718957
8.55485e-05 0.00529895
6.14494e-05 0.00541233
9.93555e-05 0.00732273
3.27307e-05 0.00703247
6.79082e-05 0.0104169
0.000160682 0.0109158
6.51722e-05 0.00718955
4.54371e-05 0.00873989
0.000114815 0.0106641
0.000120985 0.00914131
8.17036e-05 0.0089453
3.27307e-05 0.00703247
2.153e-05 0.00674145
2.54622e-05 0.00999062
6.79082e-05 0.0104169
1.54533e-05 0.00686804
2.33433e-05 0.00838293
3.29459e-05 0.0101738
4.54371e-05 0.00873989
2.23754e-05 0.00853618
2.153e-05 0.00674145
8.17825e-05 0.00674147
7.78533e-05 0.00999064
2.54622e-05 0.00999062
5.16562e-05 0.00669635
7.99731e-05 0.00838295
5.1658e-05 0.00992568
2.33433e-05 0.00838293
5.16585e-05 0.00832862
8.17825e-05 0.00674147
7.05823e-05 0.00703249
3.54044e-05 0.0104169
7.78533e-05 0.00999064
8.78593e-05 0.00686806
5.78763e-05 0.00873992
7.03682e-05 0.0101738
7.99731e-05 0.00838295
8.09396e-05 0.00853621
7.05823e-05 0.00703249
3.95804e-06 0.00732273
-5.73683e-05 0.0109158
3.54044e-05 0.0104169
3.81412e-05 0.00718957
-1.7672e-05 0.00914131
-1.15032e-05 0.0106641
5.78763e-05 0.00873992
2.16091e-05 0.00894531
0.000160682 0.0109158
6.79082e-05 0.0104169
8.85495e-05 0.0135951
0.000280778 0.0143154
0.000114815 0.0106641
0.000101195 0.0120511
0.000183415 0.0139723
0.000239948 0.0126052
0.000173815 0.0123349
6.79082e-05 0.0104169
2.54622e-05 0.00999062
1.55819e-05 0.0129319
8.85495e-05 0.0135951
3.29459e-05 0.0101738
2.80038e-05 0.0115389
2.7592e-05 0.013217
0.000101195 0.0120511
4.63459e-05 0.0117612
2.54622e-05 0.00999062
7.78533e-05 0.00999064
8.77339e-05 0.0129319
1.55819e-05 0.0129319
5.1658e-05 0.00992568
7.53026e-05 0.011539
5.16591e-05 0.0128308
2.80038e-05 0.0115389
5.16531e-05 0.0114598
7.78533e-05 0.00999064
3.54044e-05 0.0104169
1.47568e-05 0.0135952
8.77339e-05 0.0129319
7.03682e-05 0.0101738
2.11439e-06 0.0120512
7.5718e-05 0.013217
7.53026e-05 0.011539
5.69613e-05 0.0117612
3.54044e-05 0.0104169
-5.73683e-05 0.0109158
-0.000177464 0.0143154
1.47568e-05 0.0135952
-1.15032e-05 0.0106641
-0.000136634 0.0126052
-8.01055e-05 0.0139723
2.11439e-06 0.0120512
-7.05033e-05 0.0123349
0.000280778 0.0143154
8.85495e-05 0.0135951
0.000860449 0.0149
0.00127685 0.0160159
0.000183415 0.0139723
0.000111248 0.0148316
0.00108332 0.0154098
0.000360442 0.0158952
0.000224009 0.0153695
8.85495e-05 0.0135951
1.55819e-05 0.0129319
0.000336968 0.0142756
0.000860449 0.0149
2.7592e-05 0.013217
2.74554e-05 0.0139907
0.000609518 0.0145154
0.000111248 0.0148316
4.44089e-05 0.0143405
1.55819e-05 0.0129319
8.77339e-05 0.0129319
-0.000233841 0.0142757
0.000336968 0.0142756
5.16591e-05 0.0128308
7.58725e-05 0.0139908
5.15564e-05 0.0141947
2.74554e-05 0.0139907
5.16674e-05 0.0138684
8.77339e-05 0.0129319
1.47568e-05 0.0135952
-0.000757232 0.0149002
-0.000233841 0.0142757
7.5718e-05 0.013217
-7.95173e-06 0.0148317
-0.000506353 0.0145156
7.58725e-05 0.0139908
5.89014e-05 0.0143406
1.47568e-05 0.0135952
-0.000177464 0.0143154
-0.00117353 0.0160159
-0.000757232 0.0149002
-8.01055e-05 0.0139723
-0.00025713 0.0158952
-0.00098005 0.0154099
-7.95173e-06 0.0148317
-0.00012071 0.0153696
      </DataArray> 