<?xml version="1.0"?>
<VTKFile type="UnstructuredGrid">
  <UnstructuredGrid>
  <Piece NumberOfPoints="900"  NumberOfCells="100">
    <Points>
      <DataArray type="Float64" NumberOfComponents="3" format="ascii">
0 0 0
0.185858 0.185858 0
0.182176 0.513058 0
0 0.402636 0
0.0929289 0.0929289 0
0.183817 0.34986 0
0.0910879 0.457847 0
0 0.202003 0
0.0919086 0.275932 0
0.185858 0.185858 0
0.371716 0.371716 0
0.364352 0.62348 0
0.182176 0.513058 0
0.278787 0.278787 0
0.367634 0.497718 0
0.273264 0.568269 0
0.183817 0.34986 0
0.275726 0.423789 0
0.371716 0.371716 0
0.557574 0.557574 0
0.546528 0.733902 0
0.364352 0.62348 0
0.464645 0.464645 0
0.551452 0.645575 0
0.45544 0.678691 0
0.367634 0.497718 0
0.459543 0.571646 0
0.557574 0.557574 0
0.743431 0.743431 0
0.728703 0.844323 0
0.546528 0.733902 0
0.650503 0.650503 0
0.735269 0.793432 0
0.637615 0.789113 0
0.551452 0.645575 0
0.64336 0.719504 0
0.743431 0.743431 0
0.929289 0.929289 0
0.910879 0.954745 0
0.728703 0.844323 0
0.83636 0.83636 0
0.919086 0.94129 0
0.819791 0.899534 0
0.735269 0.793432 0
0.827178 0.867361 0
0 0.402636 0
0.182176 0.513058 0
0.180241 0.837927 0
0 0.801292 0
0.0910879 0.457847 0
0.180974 0.675679 0
0.0901203 0.819609 0
0 0.602283 0
0.0904872 0.638981 0
0.182176 0.513058 0
0.364352 0.62348 0
0.360481 0.874561 0
0.180241 0.837927 0
0.273264 0.568269 0
0.361949 0.749074 0
0.270361 0.856244 0
0.180974 0.675679 0
0.271462 0.712376 0
0.364352 0.62348 0
0.546528 0.733902 0
0.540722 0.911196 0
0.360481 0.874561 0
0.45544 0.678691 0
0.542923 0.822469 0
0.450601 0.892879 0
0.361949 0.749074 0
0.452436 0.785772 0
0.546528 0.733902 0
0.728703 0.844323 0
0.720962 0.947831 0
0.540722 0.911196 0
0.637615 0.789113 0
0.723898 0.895865 0
0.630842 0.929513 0
0.542923 0.822469 0
0.63341 0.859167 0
0.728703 0.844323 0
0.910879 0.954745 0
0.901203 0.984465 0
0.720962 0.947831 0
0.819791 0.899534 0
0.904872 0.96926 0
0.811083 0.966148 0
0.723898 0.895865 0
0.814385 0.932562 0
0 0.801292 0
0.180241 0.837927 0
0.180241 1.16207 0
0 1.1987 0
0.0901203 0.819609 0
0.179995 0.999997 0
0.0901205 1.18038 0
0 0.999994 0
0.0899974 0.999995 0
0.180241 0.837927 0
0.360481 0.874561 0
0.360482 1.12544 0
0.180241 1.16207 0
0.270361 0.856244 0
0.359989 0.999999 0
0.270361 1.14375 0
0.179995 0.999997 0
0.269992 0.999998 0
0.360481 0.874561 0
0.540722 0.911196 0
0.540723 1.08881 0
0.360482 1.12544 0
0.450601 0.892879 0
0.539984 1 0
0.450602 1.10712 0
0.359989 0.999999 0
0.449987 1 0
0.540722 0.911196 0
0.720962 0.947831 0
0.720964 1.05218 0
0.540723 1.08881 0
0.630842 0.929513 0
0.719979 1 0
0.630843 1.07049 0
0.539984 1 0
0.629982 1 0
0.720962 0.947831 0
0.901203 0.984465 0
0.901205 1.01555 0
0.720964 1.05218 0
0.811083 0.966148 0
0.899974 1.00001 0
0.811084 1.03386 0
0.719979 1 0
0.809976 1 0
0 1.1987 0
0.180241 1.16207 0
0.182176 1.48694 0
0 1.59736 0
0.0901205 1.18038 0
0.180975 1.32432 0
0.0910882 1.54215 0
0 1.39771 0
0.0904875 1.36101 0
0.180241 1.16207 0
0.360482 1.12544 0
0.364353 1.37652 0
0.182176 1.48694 0
0.270361 1.14375 0
0.36195 1.25092 0
0.273265 1.43173 0
0.180975 1.32432 0
0.271462 1.28762 0
0.360482 1.12544 0
0.540723 1.08881 0
0.546529 1.2661 0
0.364353 1.37652 0
0.450602 1.10712 0
0.542925 1.17753 0
0.455441 1.32131 0
0.36195 1.25092 0
0.452437 1.21423 0
0.540723 1.08881 0
0.720964 1.05218 0
0.728706 1.15568 0
0.546529 1.2661 0
0.630843 1.07049 0
0.7239 1.10414 0
0.637617 1.21089 0
0.542925 1.17753 0
0.633412 1.14084 0
0.720964 1.05218 0
0.901205 1.01555 0
0.910882 1.04526 0
0.728706 1.15568 0
0.811084 1.03386 0
0.904875 1.03075 0
0.819794 1.10047 0
0.7239 1.10414 0
0.814387 1.06744 0
0 1.59736 0
0.182176 1.48694 0
0.185858 1.81414 0
0 2 0
0.0910882 1.54215 0
0.183818 1.65014 0
0.0929289 1.90707 0
0 1.79799 0
0.0919088 1.72407 0
0.182176 1.48694 0
0.364353 1.37652 0
0.371716 1.62828 0
0.185858 1.81414 0
0.273265 1.43173 0
0.367635 1.50228 0
0.278787 1.72121 0
0.183818 1.65014 0
0.275726 1.57621 0
0.364353 1.37652 0
0.546529 1.2661 0
0.557574 1.44243 0
0.371716 1.62828 0
0.455441 1.32131 0
0.551453 1.35443 0
0.464645 1.53536 0
0.367635 1.50228 0
0.459544 1.42835 0
0.546529 1.2661 0
0.728706 1.15568 0
0.743431 1.25657 0
0.557574 1.44243 0
0.637617 1.21089 0
0.73527 1.20657 0
0.650503 1.3495 0
0.551453 1.35443 0
0.643362 1.2805 0
0.728706 1.15568 0
0.910882 1.04526 0
0.929289 1.07071 0
0.743431 1.25657 0
0.819794 1.10047 0
0.919088 1.05871 0
0.83636 1.16364 0
0.73527 1.20657 0
0.827179 1.13264 0
0.929289 1.07071 0
0.954745 1.08912 0
0.844323 1.2713 0
0.743431 1.25657 0
0.94129 1.08091 0
0.899534 1.18021 0
0.793432 1.26473 0
0.83636 1.16364 0
0.867361 1.17282 0
0.954745 1.08912 0
0.984465 1.0988 0
0.947831 1.27904 0
0.844323 1.2713 0
0.96926 1.09513 0
0.966148 1.18892 0
0.895865 1.2761 0
0.899534 1.18021 0
0.932562 1.18562 0
0.984465 1.0988 0
1.01555 1.0988 0
1.05218 1.27904 0
0.947831 1.27904 0
1.00001 1.10003 0
1.03386 1.18892 0
1 1.28002 0
0.966148 1.18892 0
1 1.19002 0
1.01555 1.0988 0
1.04526 1.08912 0
1.15568 1.27129 0
1.05218 1.27904 0
1.03075 1.09513 0
1.10047 1.18021 0
1.10414 1.2761 0
1.03386 1.18892 0
1.06744 1.18561 0
1.04526 1.08912 0
1.07071 1.07071 0
1.25657 1.25657 0
1.15568 1.27129 0
1.05871 1.08091 0
1.16364 1.16364 0
1.20657 1.26473 0
1.10047 1.18021 0
1.13264 1.17282 0
0.743431 1.25657 0
0.844323 1.2713 0
0.733902 1.45347 0
0.557574 1.44243 0
0.793432 1.26473 0
0.789113 1.36238 0
0.645575 1.44855 0
0.650503 1.3495 0
0.719504 1.35664 0
0.844323 1.2713 0
0.947831 1.27904 0
0.911196 1.45928 0
0.733902 1.45347 0
0.895865 1.2761 0
0.929513 1.36916 0
0.822469 1.45708 0
0.789113 1.36238 0
0.859167 1.36659 0
0.947831 1.27904 0
1.05218 1.27904 0
1.08881 1.45928 0
0.911196 1.45928 0
1 1.28002 0
1.07049 1.36916 0
1 1.46002 0
0.929513 1.36916 0
1 1.37002 0
1.05218 1.27904 0
1.15568 1.27129 0
1.2661 1.45347 0
1.08881 1.45928 0
1.10414 1.2761 0
1.21089 1.36238 0
1.17753 1.45708 0
1.07049 1.36916 0
1.14084 1.36659 0
1.15568 1.27129 0
1.25657 1.25657 0
1.44243 1.44243 0
1.2661 1.45347 0
1.20657 1.26473 0
1.3495 1.3495 0
1.35443 1.44855 0
1.21089 1.36238 0
1.2805 1.35664 0
0.557574 1.44243 0
0.733902 1.45347 0
0.62348 1.63565 0
0.371716 1.62828 0
0.645575 1.44855 0
0.678691 1.54456 0
0.497718 1.63237 0
0.464645 1.53536 0
0.571646 1.54046 0
0.733902 1.45347 0
0.911196 1.45928 0
0.874561 1.63952 0
0.62348 1.63565 0
0.822469 1.45708 0
0.892879 1.5494 0
0.749074 1.63805 0
0.678691 1.54456 0
0.785772 1.54756 0
0.911196 1.45928 0
1.08881 1.45928 0
1.12544 1.63952 0
0.874561 1.63952 0
1 1.46002 0
1.10712 1.5494 0
0.999999 1.64001 0
0.892879 1.5494 0
1 1.55001 0
1.08881 1.45928 0
1.2661 1.45347 0
1.37652 1.63565 0
1.12544 1.63952 0
1.17753 1.45708 0
1.32131 1.54456 0
1.25092 1.63805 0
1.10712 1.5494 0
1.21423 1.54756 0
1.2661 1.45347 0
1.44243 1.44243 0
1.62828 1.62828 0
1.37652 1.63565 0
1.35443 1.44855 0
1.53536 1.53536 0
1.50228 1.63236 0
1.32131 1.54456 0
1.42835 1.54046 0
0.371716 1.62828 0
0.62348 1.63565 0
0.513058 1.81782 0
0.185858 1.81414 0
0.497718 1.63237 0
0.568269 1.72674 0
0.34986 1.81618 0
0.278787 1.72121 0
0.423789 1.72427 0
0.62348 1.63565 0
0.874561 1.63952 0
0.837927 1.81976 0
0.513058 1.81782 0
0.749074 1.63805 0
0.856244 1.72964 0
0.675679 1.81903 0
0.568269 1.72674 0
0.712376 1.72854 0
0.874561 1.63952 0
1.12544 1.63952 0
1.16207 1.81976 0
0.837927 1.81976 0
0.999999 1.64001 0
1.14375 1.72964 0
0.999997 1.82001 0
0.856244 1.72964 0
0.999998 1.73001 0
1.12544 1.63952 0
1.37652 1.63565 0
1.48694 1.81782 0
1.16207 1.81976 0
1.25092 1.63805 0
1.43173 1.72674 0
1.32432 1.81903 0
1.14375 1.72964 0
1.28762 1.72854 0
1.37652 1.63565 0
1.62828 1.62828 0
1.81414 1.81414 0
1.48694 1.81782 0
1.50228 1.63236 0
1.72121 1.72121 0
1.65014 1.81618 0
1.43173 1.72674 0
1.57621 1.72427 0
0.185858 1.81414 0
0.513058 1.81782 0
0.402636 2 0
0 2 0
0.34986 1.81618 0
0.457847 1.90891 0
0.202003 2 0
0.0929289 1.90707 0
0.275932 1.90809 0
0.513058 1.81782 0
0.837927 1.81976 0
0.801292 2 0
0.402636 2 0
0.675679 1.81903 0
0.819609 1.90988 0
0.602283 2 0
0.457847 1.90891 0
0.638981 1.90951 0
0.837927 1.81976 0
1.16207 1.81976 0
1.1987 2 0
0.801292 2 0
0.999997 1.82001 0
1.18038 1.90988 0
0.999994 2 0
0.819609 1.90988 0
0.999995 1.91 0
1.16207 1.81976 0
1.48694 1.81782 0
1.59736 2 0
1.1987 2 0
1.32432 1.81903 0
1.54215 1.90891 0
1.39771 2 0
1.18038 1.90988 0
1.36101 1.90951 0
1.48694 1.81782 0
1.81414 1.81414 0
2 2 0
1.59736 2 0
1.65014 1.81618 0
1.90707 1.90707 0
1.79799 2 0
1.54215 1.90891 0
1.72407 1.90809 0
1.07071 0.929289 0
1.25657 0.743431 0
1.2713 0.844323 0
1.08912 0.954745 0
1.16364 0.83636 0
1.26473 0.793432 0
1.18021 0.899534 0
1.08091 0.94129 0
1.17282 0.867361 0
1.25657 0.743431 0
1.44243 0.557574 0
1.45347 0.733902 0
1.2713 0.844323 0
1.3495 0.650503 0
1.44855 0.645575 0
1.36238 0.789113 0
1.26473 0.793432 0
1.35664 0.719504 0
1.44243 0.557574 0
1.62828 0.371716 0
1.63565 0.62348 0
1.45347 0.733902 0
1.53536 0.464645 0
1.63237 0.497718 0
1.54456 0.678691 0
1.44855 0.645575 0
1.54046 0.571646 0
1.62828 0.371716 0
1.81414 0.185858 0
1.81782 0.513058 0
1.63565 0.62348 0
1.72121 0.278787 0
1.81618 0.34986 0
1.72674 0.568269 0
1.63237 0.497718 0
1.72427 0.423789 0
1.81414 0.185858 0
2 0 0
2 0.402636 0
1.81782 0.513058 0
1.90707 0.0929289 0
2 0.202003 0
1.90891 0.457847 0
1.81618 0.34986 0
1.90809 0.275932 0
1.08912 0.954745 0
1.2713 0.844323 0
1.27904 0.947831 0
1.0988 0.984465 0
1.18021 0.899534 0
1.2761 0.895865 0
1.18892 0.966148 0
1.09513 0.96926 0
1.18562 0.932562 0
1.2713 0.844323 0
1.45347 0.733902 0
1.45928 0.911196 0
1.27904 0.947831 0
1.36238 0.789113 0
1.45708 0.822469 0
1.36916 0.929513 0
1.2761 0.895865 0
1.36659 0.859167 0
1.45347 0.733902 0
1.63565 0.62348 0
1.63952 0.874561 0
1.45928 0.911196 0
1.54456 0.678691 0
1.63805 0.749074 0
1.5494 0.892879 0
1.45708 0.822469 0
1.54756 0.785772 0
1.63565 0.62348 0
1.81782 0.513058 0
1.81976 0.837927 0
1.63952 0.874561 0
1.72674 0.568269 0
1.81903 0.675679 0
1.72964 0.856244 0
1.63805 0.749074 0
1.72854 0.712376 0
1.81782 0.513058 0
2 0.402636 0
2 0.801292 0
1.81976 0.837927 0
1.90891 0.457847 0
2 0.602283 0
[...]
    <PointData>
      <DataArray type="Float64" NumberOfComponents="2" Name="Displacement" format="ascii">
0 0
0 0
0 0
0 0
0 0
0 0
0 0
0 0
0 0
0 0
0 0
0 0
0 0
0 0
0 0
0 0
0 0
0 0
0 0
0 0
0 0
0 0
0 0
0 0
0 0
0 0
0 0
0 0
0 0
0 0
0 0
0 0
0 0
0 0
0 0
0 0
0 0
0 0
0 0
0 0
0 0
0 0
0 0
0 0
0 0
0 0
0 0
0 0
0 0
0 0
0 0
0 0
0 0
0 0
0 0
0 0
0 0
0 0
0 0
0 0
0 0
0 0
0 0
0 0
0 0
0 0
0 0
0 0
0 0
0 0
0 0
0 0
0 0
0 0
0 0
0 0
0 0
0 0
0 0
0 0
0 0
0 0
0 0
0 0
0 0
0 0
0 0
0 0
0 0
0 0
0 0
0 0
0 0
0 0
0 0
0 0
0 0
0 0
0 0
0 0
0 0
0 0
0 0
0 0
0 0
0 0
0 0
0 0
0 0
0 0
0 0
0 0
0 0
0 0
0 0
0 0
0 0
0 0
0 0
0 0
0 0
0 0
0 0
0 0
0 0
0 0
0 0
0 0
0 0
0 0
0 0
0 0
0 0
0 0
0 0
0 0
0 0
0 0
0 0
0 0
0 0
0 0
0 0
0 0
0 0
0 0
0 0
0 0
0 0
0 0
0 0
0 0
0 0
0 0
0 0
0 0
0 0
0 0
0 0
0 0
0 0
0 0
0 0
0 0
0 0
0 0
0 0
0 0
0 0
0 0
0 0
0 0
0 0
0 0
0 0
0 0
0 0
0 0
0 0
0 0
0 0
0 0
0 0
0 0
0 0
0 0
0 0
0 0
0 0
0 0
0 0
0 0
0 0
0 0
0 0
0 0
0 0
0 0
0 0
0 0
0 0
0 0
0 0
0 0
0 0
0 0
0 0
0 0
0 0
0 0
0 0
0 0
0 0
0 0
0 0
0 0
0 0
0 0
0 0
0 0
0 0
0 0
0 0
0 0
0 0
0 0
0 0
0 0
0 0
0 0
0 0
0 0
0 0
0 0
0 0
0 0
0 0
0 0
0 0
0 0
0 0
0 0
0 0
0 0
0 0
0 0
0 0
0 0
0 0
0 0
0 0
0 0
0 0
0 0
0 0
0 0
0 0
0 0
0 0
0 0
0 0
0 0
0 0
0 0
0 0
0 0
0 0
0 0
0 0
0 0
0 0
0 0
0 0
0 0
0 0
0 0
0 0
0 0
0 0
0 0
0 0
0 0
0 0
0 0
0 0
0 0
0 0
0 0
0 0
0 0
0 0
0 0
0 0
0 0
0 0
0 0
0 0
0 0
0 0
0 0
0 0
0 0
0 0
0 0
0 0
0 0
0 0
0 0
0 0
0 0
0 0
0 0
0 0
0 0
0 0
0 0
0 0
0 0
0 0
0 0
0 0
0 0
0 0
0 0
0 0
0 0
0 0
0 0
0 0
0 0
0 0
0 0
0 0
0 0
0 0
0 0
0 0
0 0
0 0
0 0
0 0
0 0
0 0
0 0
0 0
0 0
0 0
0 0
0 0
0 0
0 0
0 0
0 0
0 0
0 0
0 0
0 0
0 0
0 0
0 0
0 0
0 0
0 0
0 0
0 0
0 0
0 0
0 0
0 0
0 0
0 0
0 0
0 0
0 0
0 0
0 0
0 0
0 0
0 0
0 0
0 0
0 0
0 0
0 0
0 0
0 0
0 0
0 0
0 0
0 0
0 0
0 0
0 0
0 0
0 0
0 0
0 0
0 0
0 0
0 0
0 0
0 0
0 0
0 0
0 0
0 0
0 0
0 0
0 0
0 0
0 0
0 0
0 0
0 0
0 0
0 0
0 0
0 0
0 0
0 0
0 0
0 0
0 0
0 0
0 0
0 0
0 0
0 0
0 0
0 0
0 0
0 0
0 0
0 0
0 0
0 0
0 0
0 0
0 0
0 0
0 0
0 0
0 0
0 0
0 0
0 0
0 0
0 0
0 0
0 0
0 0
0 0
0 0
0 0
0 0
0 0
0 0
0 0
0 0
0 0
0 0
0 0
0 0
0 0
0 0
0 0
0 0
0 0
0 0
0 0
0 0
0 0
0 0
0 0
0 0
0 0
0 0
0 0
0 0
0 0
0 0
0 0
0 0
0 0
0 0
0 0
0 0
0 0
0 0
0 0
0 0
0 0
0 0
0 0
0 0
0 0
0 0
0 0
0 0
0 0
0 0
0 0
0 0
0 0
0 0
0 0
0 0
0 0
0 0
0 0
0 0
0 0
0 0
0 0
0 0
0 0
0 0
0 0
0 0
0 0
0 0
0 0
0 0
0 0
0 0
0 0
0 0
0 0
0 0
0 0
0 0
0 0
0 0
0 0
0 0
0 0
0 0
0 0
0 0
0 0
0 0
0 0
0 0
0 0
0 0
0 0
0 0
0 0
0 0
0 0
0 0
0 0
0 0
0 0
0 0
0 0
0 0
0 0
0 0
0 0
0 0
0 0
0 0
0 0
0 0
0 0
0 0
0 0
0 0
0 0
0 0
0 0
0 0
0 0
0 0
0 0
0 0
0 0
0 0
0 0
0 0
0 0
0 0
0 0
0 0
0 0
0 0
0 0
0 0
0 0
0 0
0 0
0 0
0 0
0 0
0 0
0 0
0 0
0 0
0 0
0 0
0 0
0 0
0 0
0 0
0 0
0 0
0 0
0 0
0 0
0 0
0 0
0 0
0 0
0 0
0 0
0 0
0 0
0 0
0 0
0 0
0 0
0 0
0 0
0 0
0 0
0 0
0 0
0 0
0 0
0 0
0 0
0 0
0 0
0 0
0 0
0 0
0 0
0 0
0 0
0 0
0 0
0 0
0 0
0 0
0 0
0 0
0 0
0 0
0 0
0 0
0 0
0 0
0 0
0 0
0 0
0 0
0 0
0 0
0 0
0 0
0 0
0 0
0 0
0 0
0 0
0 0
0 0
0 0
0 0
0 0
0 0
0 0
0 0
0 0
0 0
0 0
0 0
0 0
0 0
0 0
0 0
0 0
0 0
0 0
0 0
0 0
0 0
0 0
0 0
0 0
0 0
0 0
0 0
0 0
0 0
0 0
0 0
0 0
0 0
0 0
0 0
0 0
0 0
0 0
0 0
0 0
0 0
0 0
0 0
0 0
0 0
0 0
0 0
0 0
0 0
0 0
0 0
0 0
0 0
0 0
0 0
0 0
0 0
0 0
0 0
0 0
0 0
0 0
0 0
0 0
0 0
0 0
0 0
0 0
0 0
0 0
0 0
0 0
0 0
0 0
0 0
0 0
0 0
0 0
0 0
0 0
0 0
0 0
0 0
0 0
0 0
0 0
0 0
0 0
0 0
0 0
0 0
0 0
0 0
0 0
0 0
0 0
0 0
0 0
0 0
0 0
0 0
0 0
0 0
0 0
0 0
0 0
0 0
0 0
0 0
0 0
0 0
0 0
0 0
0 0
0 0
0 0
0 0
0 0
0 0
0 0
0 0
0 0
0 0
0 0
0 0
0 0
0 0
0 0
0 0
0 0
0 0
0 0
0 0
0 0
0 0
0 0
0 0
0 0
0 0
0 0
0 0
0 0
0 0
0 0
0 0
0 0
0 0
0 0
0 0
0 0
0 0
0 0
0 0
0 0
0 0
0 0
0 0
0 0
0 0
0 0
0 0
0 0
0 0
0 0
0 0
0 0
0 0
0 0
0 0
0 0
0 0
0 0
0 0
0 0
0 0
0 0
0 0
0 0
0 0
0 0
0 0
0 0
0 0
0 0
0 0
0 0
0 0
0 0
0 0
0 0
0 0
0 0
0 0
0 0
0 0
0 0
0 0
0 0
0 0
0 0
0 0
0 0
0 0
0 0
0 0
0 0
0 0
0 0
0 0
0 0
0 0
0 0
0 0
0 0
0 0
0 0
0 0
0 0
0 0
0 0
0 0
0 0
0 0
0 0
0 0
0 0
0 0
0 0
0 0
0 0
0 0
0 0
0 0
      </DataArray> 
      <DataArray type="Float64" NumberOfComponents="4" Name="CauchyStress" format="ascii">
0 -1.11022e-13 -0 3.69709e-14
-1.02617e-32 1.80321e-30 0 -2.11716e-14
2.22045e-13 6.94849e-31 0 -1.33788e-14
0 1.3579e-30 0 1.84249e-14
5.97875e-33 7.17791e-31 0 -1.34515e-14
4.99702e-32 4.0626e-30 0 3.20647e-14
-1.11022e-13 -2.22045e-13 -0 3.45437e-15
0 2.02369e-32 0 -2.24927e-15
9.65016e-33 2.07307e-30 0 2.28184e-14
2.22045e-13 4.64721e-30 0 3.39114e-14
-3.2701e-31 9.51839e-30 0 4.79358e-14
-1.20472e-31 1.24246e-29 0 -5.54619e-14
-8.06605e-32 2.22045e-13 0 2.39504e-14
6.61225e-32 4.43268e-31 0 -1.12848e-14
2.22045e-13 2.62208e-31 0 -8.37686e-15
-2.72185e-32 -1.11022e-13 -0 -1.88037e-14
3.5888e-32 9.28342e-30 0 -4.82683e-14
2.75151e-32 -1.11022e-13 -0 1.60273e-14
-3.2701e-31 9.51839e-30 0 4.79358e-14
-1.11022e-13 -1.11022e-13 -0 8.1735e-15
5.24974e-31 1.09738e-29 0 -5.36162e-14
-1.20472e-31 1.24246e-29 0 -5.54619e-14
5.74075e-31 -1.11022e-13 -0 6.32543e-14
-1.11022e-13 -1.11022e-13 -0 -3.53213e-15
3.2722e-31 2.22045e-13 0 -2.36211e-14
2.22045e-13 2.62208e-31 0 -8.37686e-15
-1.46905e-32 3.21442e-32 0 2.08888e-15
-2.55006e-31 4.74002e-30 0 -3.34851e-14
-1.11022e-13 -1.11022e-13 -0 2.50121e-14
-1.11022e-13 -1.11022e-13 -0 1.72035e-14
-1.35899e-32 7.03782e-31 0 1.31358e-14
2.42271e-31 3.38255e-30 0 -3.01032e-14
4.24116e-31 3.55449e-30 0 3.15381e-14
-1.11022e-13 -1.11022e-13 -0 3.91697e-14
2.0705e-31 2.27829e-30 0 -2.49266e-14
5.14493e-31 3.00065e-30 0 2.96443e-14
-1.11022e-13 -1.11022e-13 -0 2.50121e-14
-1.11022e-13 -1.11022e-13 -0 3.2182e-15
4.43996e-33 2.65996e-33 0 1.33228e-15
-1.11022e-13 -1.11022e-13 -0 1.72035e-14
-1.11022e-13 -1.11022e-13 -0 1.91566e-14
-3.06538e-31 1.05971e-30 0 -1.3722e-14
-1.15328e-30 3.73446e-30 0 -2.54027e-14
4.24116e-31 3.55449e-30 0 3.15381e-14
-1.11022e-13 1.34185e-30 -0 -1.66022e-14
-1.11022e-13 1.85197e-29 -0 -6.80436e-14
-1.18976e-33 2.08159e-31 0 -7.19321e-15
-7.77031e-34 1.07839e-31 0 5.17354e-15
0 1.01731e-33 0 -5.04308e-16
-1.11022e-13 1.3543e-30 -0 -1.83944e-14
-1.11022e-13 -1.11022e-13 -0 1.60982e-15
-8.61505e-34 8.12439e-32 0 4.48281e-15
0 9.53241e-33 0 1.54373e-15
7.83701e-34 2.22045e-13 0 -2.07901e-15
-1.11022e-13 -1.11022e-13 -0 3.49432e-15
2.372e-32 4.48436e-31 0 1.08646e-14
-1.11022e-13 2.43745e-31 -0 -7.6112e-15
4.42351e-33 -1.11022e-13 -0 1.14277e-14
8.79974e-32 2.22045e-13 0 -2.02519e-14
-1.11022e-13 -1.11022e-13 -0 9.94232e-15
-3.43494e-33 -1.11022e-13 -0 3.74589e-15
-1.11022e-13 5.19205e-30 -0 -3.61266e-14
-1.11022e-13 -1.11022e-13 -0 7.42147e-15
2.372e-32 4.48436e-31 0 1.08646e-14
5.71509e-32 1.74774e-30 0 2.1242e-14
2.14698e-33 1.67147e-31 0 6.50564e-15
-1.11022e-13 2.43745e-31 -0 -7.6112e-15
4.78245e-31 6.68991e-30 0 -4.23325e-14
-6.79403e-32 5.07181e-31 0 -1.0479e-14
-1.20837e-32 2.03597e-31 0 6.91941e-15
-1.11022e-13 -1.11022e-13 -0 9.94232e-15
-1.11022e-13 6.65981e-33 -0 -2.58705e-15
-2.30222e-31 9.08136e-30 0 4.70402e-14
1.10052e-30 1.13578e-30 0 -2.36448e-14
2.22045e-13 3.3837e-31 0 8.67276e-15
-1.11022e-13 3.99104e-31 -0 -9.78497e-15
-5.28549e-31 4.67043e-30 0 -3.21787e-14
-1.11022e-13 -1.11022e-13 -0 -1.02737e-14
-2.67162e-33 -1.11022e-13 -0 -1.29692e-15
-2.22045e-13 -1.11022e-13 -0 -4.01444e-15
-1.11022e-13 -1.11022e-13 -0 1.64318e-14
1.10052e-30 1.13578e-30 0 -2.36448e-14
-1.11022e-13 1.64429e-30 -0 2.67066e-14
1.06576e-31 2.22045e-13 0 -8.67345e-15
2.22045e-13 3.3837e-31 0 8.67276e-15
-2.42152e-31 1.25501e-30 0 1.59127e-14
7.00641e-31 -1.83151e-31 0 1.13742e-14
2.63682e-32 6.3838e-32 0 -4.74885e-15
-1.11022e-13 -1.11022e-13 -0 -1.02737e-14
1.06428e-31 1.66603e-31 0 -8.26182e-15
0 1.01731e-33 0 -5.04308e-16
-7.77031e-34 1.07839e-31 0 5.17354e-15
-7.9462e-34 2.22045e-13 0 -1.98299e-15
0 9.19214e-31 0 -1.51593e-14
-8.61505e-34 8.12439e-32 0 4.48281e-15
5.45624e-41 -1.11022e-13 -0 -5.08611e-19
2.22045e-13 2.22045e-13 0 1.69811e-14
-1.11022e-13 -1.11022e-13 -0 -7.80474e-19
-4.61851e-41 1.55622e-39 0 6.14417e-19
4.42351e-33 -1.11022e-13 -0 1.14277e-14
-1.11022e-13 2.43745e-31 -0 -7.6112e-15
2.72986e-32 4.75932e-31 0 1.12164e-14
-1.11022e-13 -1.11022e-13 -0 6.84264e-15
-3.43494e-33 -1.11022e-13 -0 3.74589e-15
-3.24347e-42 2.22045e-13 0 -3.89265e-19
-3.48103e-33 5.91203e-32 0 3.72959e-15
3.48605e-41 1.93468e-40 0 2.38919e-19
-2.29353e-41 9.46408e-40 0 -4.80487e-19
-1.11022e-13 2.43745e-31 -0 -7.6112e-15
2.14698e-33 1.67147e-31 0 6.50564e-15
-2.22045e-13 -1.11022e-13 -0 7.01257e-15
2.72986e-32 4.75932e-31 0 1.12164e-14
-1.20837e-32 2.03597e-31 0 6.91941e-15
-2.22045e-13 -1.11022e-13 -0 -8.44375e-19
6.04659e-34 1.30412e-34 0 4.28682e-16
-3.24347e-42 2.22045e-13 0 -3.89265e-19
-1.11022e-13 -1.11022e-13 -0 -3.88533e-20
-1.11022e-13 3.99104e-31 -0 -9.78497e-15
2.22045e-13 3.3837e-31 0 8.67276e-15
-1.11022e-13 8.56481e-34 -0 -6.27863e-16
-1.42443e-32 4.99112e-32 0 -2.98609e-15
-2.67162e-33 -1.11022e-13 -0 -1.29692e-15
-1.11022e-13 -1.11022e-13 -0 3.34553e-19
-7.72518e-34 7.91832e-33 0 -1.33658e-15
-8.74713e-40 3.26079e-39 0 -7.72346e-19
-1.11022e-13 1.8509e-41 -0 -2.73739e-20
2.22045e-13 3.3837e-31 0 8.67276e-15
1.06576e-31 2.22045e-13 0 -8.67345e-15
6.89251e-31 5.1019e-31 0 1.73165e-14
-1.11022e-13 8.56481e-34 -0 -6.27863e-16
2.63682e-32 6.3838e-32 0 -4.74885e-15
5.3946e-38 4.82328e-39 0 3.83306e-18
5.43284e-32 8.92544e-32 0 -5.9913e-15
-1.11022e-13 -1.11022e-13 -0 3.34553e-19
-1.11022e-13 -1.11022e-13 -0 -8.91802e-19
0 1.04849e-31 0 -5.11978e-15
2.22045e-13 1.36224e-31 0 -5.74967e-15
1.10482e-32 5.04611e-31 0 1.13541e-14
0 2.22045e-13 0 -1.6822e-14
-1.11022e-13 -1.11022e-13 -0 -6.08139e-15
-1.11022e-13 -1.11022e-13 -0 -1.116e-14
6.24831e-33 -1.11022e-13 -0 -4.3945e-14
0 1.8316e-30 0 2.13986e-14
-1.11022e-13 -1.11022e-13 -0 1.91098e-14
2.22045e-13 1.22914e-30 0 -1.75868e-14
-1.11022e-13 2.50569e-31 -0 8.02758e-15
1.09641e-31 1.26767e-29 0 5.65384e-14
1.00857e-34 6.0161e-33 0 1.23662e-15
-4.93675e-33 1.8644e-31 0 -6.73616e-15
5.82863e-33 2.01111e-32 0 2.54655e-15
1.02245e-32 3.07139e-30 0 -2.77561e-14
-1.11022e-13 9.52627e-33 -0 -1.32666e-15
-6.54808e-33 -1.11022e-13 -0 -1.03939e-14
-1.11022e-13 2.50569e-31 -0 8.02758e-15
-4.35983e-33 2.22045e-13 0 3.42277e-15
-5.99451e-32 4.67734e-30 0 -3.39757e-14
1.09641e-31 1.26767e-29 0 5.65384e-14
4.07369e-33 2.55348e-31 0 8.05329e-15
-1.11022e-13 4.18115e-30 -0 -3.29122e-14
3.58309e-33 2.6908e-31 0 8.25625e-15
5.82863e-33 2.01111e-32 0 2.54655e-15
-1.11022e-13 -1.11022e-13 -0 9.36268e-15
-4.9971e-32 3.07141e-31 0 8.01826e-15
-1.11022e-13 1.98569e-33 -0 7.68474e-16
5.92048e-31 5.2683e-31 0 -1.67248e-14
2.22045e-13 6.28093e-31 0 -1.34132e-14
4.72116e-33 1.48845e-32 0 -2.21391e-15
5.13947e-32 -1.11022e-13 -0 -1.03063e-14
1.77164e-31 -1.11022e-13 -0 -2.82702e-14
-1.11022e-13 -1.11022e-13 -0 1.35719e-15
4.19204e-32 5.88991e-31 0 -1.2559e-14
-1.11022e-13 1.98569e-33 -0 7.68474e-16
2.22377e-33 1.32649e-32 0 1.96778e-15
1.44005e-32 -1.11022e-13 -0 -2.88689e-15
5.92048e-31 5.2683e-31 0 -1.67248e-14
1.02521e-31 9.7535e-32 0 7.07205e-15
7.67513e-31 -1.11022e-13 -0 -1.20135e-14
1.75074e-30 2.25024e-30 0 -3.16267e-14
5.13947e-32 -1.11022e-13 -0 -1.03063e-14
-1.98882e-32 4.22582e-32 0 -2.36485e-15
0 2.22045e-13 0 -1.6822e-14
1.10482e-32 5.04611e-31 0 1.13541e-14
3.83845e-32 4.29158e-30 0 -3.29012e-14
-1.11022e-13 -1.11022e-13 -0 2.22389e-14
6.24831e-33 -1.11022e-13 -0 -4.3945e-14
2.81292e-32 9.49303e-31 0 -1.5632e-14
3.11757e-32 -1.11022e-13 -0 2.452e-14
0 2.22045e-13 0 5.6254e-14
3.47945e-32 8.57706e-30 0 -4.64e-14
1.00857e-34 6.0161e-33 0 1.23662e-15
1.09641e-31 1.26767e-29 0 5.65384e-14
4.05532e-32 6.72327e-30 0 -4.11212e-14
-1.23217e-32 5.58565e-32 0 3.29905e-15
1.02245e-32 3.07139e-30 0 -2.77561e-14
1.49241e-32 1.41254e-31 0 -6.24856e-15
-1.87385e-32 -1.11022e-13 -0 -1.37254e-14
-9.75981e-33 1.60448e-31 0 -6.13775e-15
-1.2796e-32 9.80917e-31 0 -1.55573e-14
1.09641e-31 1.26767e-29 0 5.65384e-14
-5.99451e-32 4.67734e-30 0 -3.39757e-14
3.9405e-31 2.30912e-30 0 2.5996e-14
4.05532e-32 6.72327e-30 0 -4.11212e-14
3.58309e-33 2.6908e-31 0 8.25625e-15
2.22045e-13 7.50484e-30 0 -4.49843e-14
-4.54262e-31 6.20233e-30 0 -3.7908e-14
1.49241e-32 1.41254e-31 0 -6.24856e-15
2.66951e-33 9.67105e-34 0 -9.53495e-16
2.22045e-13 6.28093e-31 0 -1.34132e-14
5.92048e-31 5.2683e-31 0 -1.67248e-14
-1.11022e-13 1.00699e-29 -0 4.62152e-14
1.31107e-31 -1.11022e-13 -0 -1.13246e-14
1.77164e-31 -1.11022e-13 -0 -2.82702e-14
-7.6763e-31 6.55033e-30 0 -3.8022e-14
2.29499e-32 5.4793e-30 0 -3.70886e-14
-1.11022e-13 3.15976e-29 -0 8.89885e-14
-1.57294e-31 1.33716e-30 0 1.71746e-14
5.92048e-31 5.2683e-31 0 -1.67248e-14
1.44005e-32 -1.11022e-13 -0 -2.88689e-15
-1.80034e-32 2.11199e-30 0 2.28801e-14
-1.11022e-13 1.00699e-29 -0 4.62152e-14
1.75074e-30 2.25024e-30 0 -3.16267e-14
1.23815e-30 -1.11022e-13 -0 -1.94622e-14
9.70916e-32 8.45907e-31 0 -1.53541e-14
-7.6763e-31 6.55033e-30 0 -3.8022e-14
5.87064e-31 4.20575e-31 0 -1.58717e-14
6.28346e-30 -1.11022e-13 -0 -5.71151e-14
4.55633e-31 -1.11022e-13 -0 1.19582e-14
6.12487e-31 -2.76203e-32 0 -1.2092e-14
-1.11022e-13 -1.12544e-30 -0 -5.19088e-14
1.31383e-30 -9.39177e-31 0 -9.67793e-15
-1.11022e-13 1.256e-30 -0 -5.88922e-14
3.45204e-32 -2.41739e-32 0 -1.6083e-15
1.00926e-29 -6.21727e-31 0 4.86591e-14
2.9076e-30 2.22045e-13 0 -2.73993e-14
-5.60062e-31 6.99281e-31 0 -5.89954e-15
2.22045e-13 2.22045e-13 0 -4.45182e-16
-1.11022e-13 -1.17355e-32 -0 1.81495e-15
2.22045e-13 -7.13073e-32 0 -1.04771e-14
-1.11022e-13 1.90429e-30 -0 -4.01164e-14
1.38972e-31 1.2838e-31 0 8.17546e-15
-1.11022e-13 -1.11022e-13 -0 2.36805e-14
-1.11022e-13 -1.11022e-13 -0 2.50664e-14
2.22045e-13 2.95501e-31 0 7.75527e-15
2.22045e-13 2.22045e-13 0 -4.45182e-16
-2.36859e-32 4.86733e-32 0 -2.49937e-15
-2.22045e-13 -2.22045e-13 -0 -7.65324e-15
-1.11022e-13 -1.17355e-32 -0 1.81495e-15
-6.59125e-39 -1.11022e-13 -0 -2.63045e-18
8.04123e-31 -8.13893e-32 0 1.34419e-14
-4.46145e-40 6.37342e-40 0 -2.1863e-19
1.38972e-31 1.2838e-31 0 8.17546e-15
9.93897e-40 -2.55968e-40 0 4.29514e-19
-1.11022e-13 -1.11022e-13 -0 3.51993e-15
1.37451e-30 -9.01693e-31 0 -1.08722e-14
-1.45891e-32 -1.11022e-13 -0 -8.73275e-16
-1.847e-33 5.76859e-33 0 -9.9015e-16
8.34304e-31 2.77868e-31 0 -1.66746e-14
2.22045e-13 -6.64622e-31 0 1.8347e-14
1.0235e-30 5.94308e-32 0 -1.6454e-14
-1.11022e-13 2.01471e-32 -0 1.40284e-14
1.37961e-30 -1.11022e-13 -0 -1.76506e-14
1.37451e-30 -9.01693e-31 0 -1.08722e-14
2.22045e-13 2.22045e-13 0 -4.01963e-15
-1.11022e-13 -1.11022e-13 -0 2.19468e-14
-1.45891e-32 -1.11022e-13 -0 -8.73275e-16
-1.11022e-13 4.09574e-30 -0 -5.97282e-14
-1.11022e-13 2.63358e-30 -0 7.76429e-14
1.146e-30 -1.11022e-13 -0 -2.22437e-14
2.22045e-13 -6.64622e-31 0 1.8347e-14
3.01476e-31 -1.11022e-13 -0 -8.496e-15
-2.46409e-33 1.42115e-32 0 1.71372e-15
-1.00725e-31 2.22045e-13 0 -4.95322e-15
4.55989e-31 1.50282e-31 0 1.23113e-14
-1.11022e-13 1.38842e-31 -0 -2.19554e-14
-1.11022e-13 -1.11022e-13 -0 1.97671e-14
1.53794e-30 -1.11022e-13 -0 1.73221e-14
5.75588e-31 -8.04952e-32 0 -1.11253e-14
1.65711e-30 6.99367e-32 0 2.07789e-14
1.60681e-30 3.78822e-32 0 2.02774e-14
-2.22045e-13 -2.22045e-13 -0 1.98765e-14
2.22045e-13 7.08678e-32 0 1.28054e-14
2.25861e-32 1.6448e-32 0 3.12386e-15
1.05706e-29 -1.69043e-31 0 5.09939e-14
-1.11022e-13 -3.12489e-31 -0 -2.56306e-14
-1.11022e-13 -2.86429e-32 -0 -6.55624e-15
4.09686e-31 -8.52971e-32 0 9.0054e-15
7.15662e-30 -1.64319e-31 0 -4.181e-14
2.22045e-13 -1.18603e-32 0 8.29518e-15
2.22045e-13 7.08678e-32 0 1.28054e-14
-1.11022e-13 -1.11022e-13 -0 -1.28999e-14
-1.11022e-13 -1.11022e-13 -0 -5.79585e-15
2.25861e-32 1.6448e-32 0 3.12386e-15
-1.11022e-13 -2.22045e-13 -0 1.3339e-18
3.07624e-31 -1.11022e-13 -0 -9.28393e-15
2.22045e-13 -2.26594e-40 0 6.11994e-19
-1.11022e-13 -2.86429e-32 -0 -6.55624e-15
-4.63853e-41 7.66588e-40 0 4.24324e-19
6.62992e-32 -2.8747e-32 0 3.06399e-15
2.74733e-30 -2.17777e-31 0 2.51473e-14
-1.11022e-13 -1.11022e-13 -0 -1.20468e-14
4.02083e-32 1.1486e-33 0 -3.21547e-15
2.22045e-13 2.22045e-13 0 -1.96474e-14
2.22045e-13 -1.72005e-31 0 9.44931e-15
-1.11022e-13 -1.11022e-13 -0 -4.31097e-15
8.71919e-31 -9.31285e-33 0 -1.46851e-14
-1.11022e-13 7.59691e-32 -0 -1.29894e-14
2.74733e-30 -2.17777e-31 0 2.51473e-14
2.22045e-13 -3.15788e-31 0 -3.0733e-14
1.51688e-29 -1.11022e-13 -0 -6.35295e-14
-1.11022e-13 -1.11022e-13 -0 -1.20468e-14
-1.11022e-13 -1.88498e-31 -0 8.55007e-15
2.17272e-29 -1.11022e-13 -0 -7.53015e-14
8.09357e-31 -1.14769e-31 0 -1.31775e-14
2.22045e-13 -1.72005e-31 0 9.44931e-15
3.83475e-30 1.02168e-30 0 3.48441e-14
-1.11022e-13 1.38842e-31 -0 -2.19554e-14
4.55989e-31 1.50282e-31 0 1.23113e-14
1.2991e-32 -3.2928e-33 0 -1.55709e-15
9.46586e-31 2.24817e-31 0 -1.71129e-14
5.75588e-31 -8.04952e-32 0 -1.11253e-14
4.34509e-31 8.19191e-32 0 1.13625e-14
-1.11022e-13 8.03725e-32 -0 -3.16115e-14
2.88637e-30 2.7689e-31 0 2.81214e-14
2.75976e-31 1.12606e-31 0 -9.85624e-15
1.05706e-29 -1.69043e-31 0 5.09939e-14
2.25861e-32 1.6448e-32 0 3.12386e-15
-1.11022e-13 -1.11022e-13 -0 5.92667e-15
-1.11022e-13 -1.11022e-13 -0 1.41641e-15
4.09686e-31 -8.52971e-32 0 9.0054e-15
3.70376e-31 3.50875e-32 0 -1.00681e-14
-1.11022e-13 -1.11022e-13 -0 -2.35909e-14
-2.22045e-13 -1.11022e-13 -0 1.93625e-14
1.14871e-31 5.10023e-32 0 6.43959e-15
2.25861e-32 1.6448e-32 0 3.12386e-15
-1.11022e-13 -1.11022e-13 -0 -5.79585e-15
2.43639e-33 1.14036e-33 0 -9.45615e-16
-1.11022e-13 -1.11022e-13 -0 5.92667e-15
2.22045e-13 -2.26594e-40 0 6.11994e-19
8.30058e-32 -1.11022e-13 -0 -4.96478e-15
2.22045e-13 2.31561e-40 0 -4.48174e-19
3.70376e-31 3.50875e-32 0 -1.00681e-14
-2.1583e-41 2.22045e-13 0 2.19368e-20
4.02083e-32 1.1486e-33 0 -3.21547e-15
-1.11022e-13 -1.11022e-13 -0 -1.20468e-14
7.86348e-31 2.50635e-33 0 -1.40433e-14
2.9854e-31 -1.63358e-33 0 8.61548e-15
-1.11022e-13 -1.11022e-13 -0 -4.31097e-15
3.40673e-30 1.89102e-31 0 -2.99826e-14
3.29646e-30 3.27875e-32 0 -2.88498e-14
-1.11022e-13 -1.11022e-13 -0 -1.14254e-14
7.59629e-34 -3.0311e-35 0 -4.27001e-16
-1.11022e-13 -1.11022e-13 -0 -1.20468e-14
1.51688e-29 -1.11022e-13 -0 -6.35295e-14
9.84134e-30 -3.00171e-31 0 4.88394e-14
7.86348e-31 2.50635e-33 0 -1.40433e-14
8.09357e-31 -1.14769e-31 0 -1.31775e-14
2.22045e-13 3.71379e-31 0 -7.56138e-14
-1.11022e-13 -1.11022e-13 -0 2.33377e-14
3.40673e-30 1.89102e-31 0 -2.99826e-14
3.24626e-30 -2.22371e-31 0 2.74949e-14
7.77538e-30 -1.11022e-13 -0 4.46799e-14
5.77732e-31 -4.09257e-32 0 1.15845e-14
8.07767e-31 1.67344e-32 0 -1.43571e-14
-1.11022e-13 1.58038e-31 -0 -5.49044e-14
4.6103e-31 2.22045e-13 0 -1.16469e-14
1.9637e-31 -1.08433e-32 0 6.81041e-15
-1.11022e-13 1.03272e-32 -0 -1.82875e-14
6.19822e-30 1.79378e-32 0 3.94213e-14
1.07984e-32 -5.7178e-33 0 1.12701e-15
4.77703e-31 3.92058e-33 0 -1.0973e-14
-1.11022e-13 -1.77964e-33 -0 -5.80848e-15
-1.11022e-13 -1.11022e-13 -0 2.99312e-15
1.75108e-33 -8.38893e-34 0 4.77543e-16
1.21567e-32 -5.5308e-34 0 -1.7032e-15
1.58723e-32 2.1458e-35 0 1.99335e-15
2.22045e-13 -1.11022e-13 0 2.47238e-15
-1.11022e-13 -1.11022e-13 -0 -4.02741e-14
5.67104e-31 9.36273e-33 0 -1.20049e-14
-1.11022e-13 -1.77964e-33 -0 -5.80848e-15
1.574e-32 -3.35659e-33 0 1.75951e-15
6.52359e-31 1.64708e-33 0 1.27868e-14
-1.11022e-13 -1.11022e-13 -0 2.99312e-15
-1.11022e-13 -1.11022e-13 -0 2.64177e-19
2.22045e-13 8.52021e-33 0 -8.8688e-15
2.22045e-13 -2.32143e-42 0 4.91224e-20
1.58723e-32 2.1458e-35 0 1.99335e-15
1.5293e-39 -2.42803e-40 0 5.6712e-19
1.55208e-32 8.12245e-34 0 2.02071e-15
2.22045e-13 2.22045e-13 0 1.27939e-14
-1.11022e-13 -1.11022e-13 -0 7.77304e-15
-1.11022e-13 -1.11022e-13 -0 -3.25482e-15
5.17138e-32 -1.89614e-33 0 3.52908e-15
5.34949e-31 -1.11022e-13 -0 -1.18379e-14
8.06022e-33 4.37887e-34 0 1.45758e-15
2.22045e-13 2.15917e-34 0 1.32794e-15
4.88681e-33 3.53394e-33 0 -1.45093e-15
2.22045e-13 2.22045e-13 0 1.27939e-14
7.58204e-30 -2.71418e-31 0 4.27511e-14
5.61999e-31 -2.97109e-32 0 1.15357e-14
-1.11022e-13 -1.11022e-13 -0 7.77304e-15
1.73391e-32 1.2453e-33 0 2.15548e-15
2.1297e-31 7.10324e-33 0 -7.41743e-15
9.11976e-30 -7.13441e-32 0 -4.75616e-14
5.34949e-31 -1.11022e-13 -0 -1.18379e-14
1.03779e-33 -8.83646e-34 0 1.96306e-16
-1.11022e-13 1.58038e-31 -0 -5.49044e-14
8.07767e-31 1.67344e-32 0 -1.43571e-14
-1.11022e-13 0 -0 -2.78617e-14
2.47643e-30 -1.11022e-13 -0 2.48819e-14
-1.11022e-13 1.03272e-32 -0 -1.82875e-14
-1.11022e-13 -1.4756e-33 -0 -1.22597e-14
1.27737e-31 -1.11022e-13 -0 -5.65104e-15
3.7566e-30 -1.11022e-13 -0 3.04296e-14